
                                 *****************
                                 * O   R   C   A *
                                 *****************

           --- An Ab Initio, DFT and Semiempirical electronic structure package ---

                  #######################################################
                  #                        -***-                        #
                  #          Department of theory and spectroscopy      #
                  #               Directorship: Frank Neese             #
                  #        Max Planck Institute fuer Kohlenforschung    #
                  #                Kaiser Wilhelm Platz 1               #
                  #                 D-45470 Muelheim/Ruhr               #
                  #                      Germany                        #
                  #                                                     #
                  #                  All rights reserved                #
                  #                        -***-                        #
                  #######################################################


                         Program Version 4.2.0 -  RELEASE  -


 With contributions from (in alphabetic order):
   Daniel Aravena         : Magnetic Suceptibility
   Michael Atanasov       : Ab Initio Ligand Field Theory (pilot matlab implementation)
   Alexander A. Auer      : GIAO ZORA, VPT2
   Ute Becker             : Parallelization
   Giovanni Bistoni       : ED, misc. LED, open-shell LED, HFLED
   Martin Brehm           : Molecular dynamics
   Dmytro Bykov           : SCF Hessian
   Vijay G. Chilkuri      : MRCI spin determinant printing, contributions to CSF-ICE
   Dipayan Datta          : RHF DLPNO-CCSD density
   Achintya Kumar Dutta   : EOM-CC, STEOM-CC
   Dmitry Ganyushin       : Spin-Orbit,Spin-Spin,Magnetic field MRCI
   Miquel Garcia          : C-PCM Hessian, Gaussian charge scheme
   Yang Guo               : DLPNO-NEVPT2, CIM, IAO-localization
   Andreas Hansen         : Spin unrestricted coupled pair/coupled cluster methods
   Benjamin Helmich-Paris : CASSCF linear response (MC-RPA)
   Lee Huntington         : MR-EOM, pCC
   Robert Izsak           : Overlap fitted RIJCOSX, COSX-SCS-MP3, EOM
   Christian Kollmar      : KDIIS, OOCD, Brueckner-CCSD(T), CCSD density
   Simone Kossmann        : Meta GGA functionals, TD-DFT gradient, OOMP2, MP2 Hessian
   Martin Krupicka        : AUTO-CI
   Lucas Lang             : DCDCAS
   Dagmar Lenk            : GEPOL surface, SMD
   Dimitrios Liakos       : Extrapolation schemes; Compound Job, initial MDCI parallelization
   Dimitrios Manganas     : Further ROCIS development; embedding schemes
   Dimitrios Pantazis     : SARC Basis sets
   Taras Petrenko         : DFT Hessian,TD-DFT gradient, ASA, ECA, R-Raman, ABS, FL, XAS/XES, NRVS
   Peter Pinski           : DLPNO-MP2, DLPNO-MP2 Gradient
   Christoph Reimann      : Effective Core Potentials
   Marius Retegan         : Local ZFS, SOC
   Christoph Riplinger    : Optimizer, TS searches, QM/MM, DLPNO-CCSD(T), (RO)-DLPNO pert. Triples
   Tobias Risthaus        : Range-separated hybrids, TD-DFT gradient, RPA, STAB
   Michael Roemelt        : Original ROCIS implementation
   Masaaki Saitow         : Open-shell DLPNO-CCSD energy and density
   Barbara Sandhoefer     : DKH picture change effects
   Avijit Sen             : IP-ROCIS
   Kantharuban Sivalingam : CASSCF convergence, NEVPT2, FIC-MRCI
   Bernardo de Souza      : ESD, SOC TD-DFT
   Georgi Stoychev        : AutoAux, RI-MP2 NMR
   Willem Van den Heuvel  : Paramagnetic NMR
   Boris Wezisla          : Elementary symmetry handling
   Frank Wennmohs         : Technical directorship


 We gratefully acknowledge several colleagues who have allowed us to
 interface, adapt or use parts of their codes:
   Stefan Grimme, W. Hujo, H. Kruse,             : VdW corrections, initial TS optimization,
                  C. Bannwarth                     DFT functionals, gCP, sTDA/sTD-DF
   Ed Valeev, F. Pavosevic, A. Kumar             : LibInt (2-el integral package), F12 methods
   Garnet Chan, S. Sharma, J. Yang, R. Olivares  : DMRG
   Ulf Ekstrom                                   : XCFun DFT Library
   Mihaly Kallay                                 : mrcc  (arbitrary order and MRCC methods)
   Andreas Klamt, Michael Diedenhofen            : otool_cosmo (COSMO solvation model)
   Jiri Pittner, Ondrej Demel                    : Mk-CCSD
   Frank Weinhold                                : gennbo (NPA and NBO analysis)
   Christopher J. Cramer and Donald G. Truhlar   : smd solvation model
   Lars Goerigk                                  : TD-DFT with DH, B97 family of functionals
   V. Asgeirsson, H. Jonsson                     : NEB implementation
   FAccTs GmbH                                   : IRC, NEB, NEB-TS, Multilevel, MM, QM/MM, CI optimization
   S Lehtola, MJT Oliveira, MAL Marques          : LibXC Library


 Your calculation uses the libint2 library for the computation of 2-el integrals
 For citations please refer to: http://libint.valeyev.net

 Your ORCA version has been built with support for libXC version: 4.2.3
 For citations please refer to: https://tddft.org/programs/libxc/

 This ORCA versions uses:
   CBLAS   interface :  Fast vector & matrix operations
   LAPACKE interface :  Fast linear algebra routines
   SCALAPACK package :  Parallel linear algebra routines


Your calculation utilizes the atom-pairwise dispersion correction
with the Becke-Johnson damping scheme (D3BJ)
Cite in your paper:
S.Grimme, S.Ehrlich, L.Goerigk, J Comput Chem, (2011), 32, 1456–1465 
S.Grimme, J.Antony, S.Ehrlich and H.Krieg, J.Chem.Phys., 132, (2010), 154104 
   

----- Orbital basis set information -----
Your calculation utilizes the basis: aug-cc-pVTZ 
    H, B-Ne : Obtained from the ccRepo (grant-hill.group.shef.ac.uk/ccrepo) Feb. 2017
              R. A. Kendall, T. H. Dunning, Jr., R. J. Harrison, J. Chem. Phys. 96, 6796 (1992)
         He : Obtained from the ccRepo (grant-hill.group.shef.ac.uk/ccrepo) Feb. 2017
              D. E. Woon, T. H. Dunning, Jr., J. Chem. Phys. 100, 2975 (1994)
  Li-Be, Na : Obtained from the ccRepo (grant-hill.group.shef.ac.uk/ccrepo) Feb. 2017
              B. P. Prascher, D. E. Woon, K. A. Peterson, T. H. Dunning, Jr., A. K. Wilson, Theor. Chem. Acc. 128, 69 (2011)
         Mg : Obtained from the Peterson Research Group Website (tyr0.chem.wsu.edu/~kipeters) Feb. 2017
              B. P. Prascher, D. E. Woon, K. A. Peterson, T. H. Dunning, Jr., A. K. Wilson, Theor. Chem. Acc. 128, 69 (2011)
      Al-Ar : Obtained from the ccRepo (grant-hill.group.shef.ac.uk/ccrepo) Feb. 2017
              D. E. Woon, T. H. Dunning, Jr., J. Chem. Phys. 98, 1358 (1993)
      Sc-Zn : Obtained from the ccRepo (grant-hill.group.shef.ac.uk/ccrepo) Feb. 2017
              N. B. Balabanov, K. A. Peterson, J. Chem. Phys. 123, 064107 (2005)
              N. B. Balabanov, K. A. Peterson, J. Chem. Phys. 125, 074110 (2006)
      Ga-Kr : Obtained from the ccRepo (grant-hill.group.shef.ac.uk/ccrepo) Feb. 2017
              A. K. Wilson, D. E. Woon, K. A. Peterson, T. H. Dunning, Jr., J. Chem. Phys. 110, 7667 (1999)
     Ag, Au : Obtained from the Peterson Research Group Website (tyr0.chem.wsu.edu/~kipeters) Feb. 2017
              K. A. Peterson, C. Puzzarini, Theor. Chem. Acc. 114, 283 (2005)

----- AuxJ basis set information -----
Your calculation utilizes the auxiliary basis: def2/J
   F. Weigend, Phys. Chem. Chem. Phys. 8, 1057 (2006).

================================================================================
                                        WARNINGS
                       Please study these warnings very carefully!
================================================================================


WARNING: your system is open-shell and RHF/RKS was chosen
  ===> : WILL SWITCH to UHF/UKS


WARNING: The SCAN functional is very grid-sensitive!
         Use at least GRID5 and a higher intacc

INFO   : the flag for use of LIBINT has been found!

================================================================================
                                       INPUT FILE
================================================================================
NAME = 53_CuO.in
|  1> #
|  2> # 53_CuO scanfunc/aug-cc-pvtz
|  3> #
|  4> ! scanfunc d3bj aug-cc-pvtz def2/j grid4 nofinalgrid
|  5> 
|  6> *xyz 0 2
|  7>   Cu  0.00000000000000      0.00000000000000      0.13870993735929
|  8>   O   0.00000000000000      0.00000000000000      1.86129006264071
|  9> *
| 10> 
| 11> %pal
| 12> nprocs 24
| 13> end
| 14> 
| 15> 
| 16>                          ****END OF INPUT****
================================================================================

                       ****************************
                       * Single Point Calculation *
                       ****************************

---------------------------------
CARTESIAN COORDINATES (ANGSTROEM)
---------------------------------
  Cu     0.000000    0.000000    0.138710
  O      0.000000    0.000000    1.861290

----------------------------
CARTESIAN COORDINATES (A.U.)
----------------------------
  NO LB      ZA    FRAG     MASS         X           Y           Z
   0 Cu   29.0000    0    63.550    0.000000    0.000000    0.262124
   1 O     8.0000    0    15.999    0.000000    0.000000    3.517328

--------------------------------
INTERNAL COORDINATES (ANGSTROEM)
--------------------------------
 Cu     0   0   0     0.000000000000     0.00000000     0.00000000
 O      1   0   0     1.722580125281     0.00000000     0.00000000

---------------------------
INTERNAL COORDINATES (A.U.)
---------------------------
 Cu     0   0   0     0.000000000000     0.00000000     0.00000000
 O      1   0   0     3.255204680518     0.00000000     0.00000000

---------------------
BASIS SET INFORMATION
---------------------
There are 2 groups of distinct atoms

 Group   1 Type Cu  : 116s77p23d3f2g contracted to 8s7p5d3f2g pattern {19191919191911/151515151511/77711/111/11}
 Group   2 Type O   : 19s6p3d2f contracted to 5s4p3d2f pattern {88111/3111/111/11}

Atom   0Cu   basis set group =>   1
Atom   1O    basis set group =>   2
---------------------------------
AUXILIARY/J BASIS SET INFORMATION
---------------------------------
There are 2 groups of distinct atoms

 Group   1 Type Cu  : 19s5p5d3f3g contracted to 8s5p4d3f3g pattern {121111111/11111/2111/111/111}
 Group   2 Type O   : 12s5p4d2f1g contracted to 6s4p3d1f1g pattern {711111/2111/211/2/1}

Atom   0Cu   basis set group =>   1
Atom   1O    basis set group =>   2


           ************************************************************
           *        Program running with 24 parallel MPI-processes    *
           *              working on a common directory               *
           ************************************************************
------------------------------------------------------------------------------
                           ORCA GTO INTEGRAL CALCULATION
                           -- RI-GTO INTEGRALS CHOSEN --
------------------------------------------------------------------------------

                         BASIS SET STATISTICS AND STARTUP INFO

Gaussian basis set:
 # of primitive gaussian shells          ...  251
 # of primitive gaussian functions       ...  567
 # of contracted shells                  ...   39
 # of contracted basis functions         ...  139
 Highest angular momentum                ...    4
 Maximum contraction depth               ...   19
Auxiliary gaussian basis set:
 # of primitive gaussian shells          ...   59
 # of primitive gaussian functions       ...  177
 # of contracted shells                  ...   38
 # of contracted aux-basis functions     ...  140
 Highest angular momentum                ...    4
 Maximum contraction depth               ...   12
Ratio of auxiliary to basis functions    ...  1.01
Integral package used                  ... LIBINT
 One Electron integrals                  ... done
 Ordering auxiliary basis shells         ... done
 Integral threshhold             Thresh  ...  1.000e-10
 Primitive cut-off               TCut    ...  1.000e-11
 Pre-screening matrix                    ... done
 Shell pair data                         ... 
 Ordering of the shell pairs             ... done (   0.000 sec) 780 of 780 pairs
 Determination of significant pairs      ... done (   0.000 sec)
 Creation of shell pair data             ... done (   0.001 sec)
 Storage of shell pair data              ... done (   0.049 sec)
 Shell pair data done in (   0.051 sec)
 Computing two index integrals           ... done
 Cholesky decomposition of the V-matrix  ... done


Timings:
 Total evaluation time                   ...   2.257 sec (  0.038 min)
 One electron matrix time                ...   0.040 sec (  0.001 min) =  1.8%
 Schwartz matrix evaluation time         ...   2.128 sec (  0.035 min) = 94.3%
 Two index repulsion integral time       ...   0.002 sec (  0.000 min) =  0.1%
 Cholesky decomposition of V             ...   0.001 sec (  0.000 min) =  0.0%
 Three index repulsion integral time     ...   0.000 sec (  0.000 min) =  0.0%



           ************************************************************
           *        Program running with 24 parallel MPI-processes    *
           *              working on a common directory               *
           ************************************************************
-------------------------------------------------------------------------------
                                 ORCA SCF
-------------------------------------------------------------------------------

------------
SCF SETTINGS
------------
Hamiltonian:
 Density Functional     Method          .... DFT(GTOs)
 Exchange Functional    Exchange        .... SCAN
 Correlation Functional Correlation     .... SCAN
 Gradients option       PostSCFGGA      .... off
   Density functional embedding theory  .... OFF
   NL short-range parameter             ....  6.400000
 RI-approximation to the Coulomb term is turned on
   Number of auxiliary basis functions  .... 140


General Settings:
 Integral files         IntName         .... 53_CuO
 Hartree-Fock type      HFTyp           .... UHF
 Total Charge           Charge          ....    0
 Multiplicity           Mult            ....    2
 Number of Electrons    NEL             ....   37
 Basis Dimension        Dim             ....  139
 Nuclear Repulsion      ENuc            ....     71.2704799758 Eh

Convergence Acceleration:
 DIIS                   CNVDIIS         .... on
   Start iteration      DIISMaxIt       ....    12
   Startup error        DIISStart       ....  0.200000
   # of expansion vecs  DIISMaxEq       ....     5
   Bias factor          DIISBfac        ....   1.050
   Max. coefficient     DIISMaxC        ....  10.000
 Newton-Raphson         CNVNR           .... off
 SOSCF                  CNVSOSCF        .... off
 Level Shifting         CNVShift        .... on
   Level shift para.    LevelShift      ....    0.2500
   Turn off err/grad.   ShiftErr        ....    0.0010
 Zerner damping         CNVZerner       .... off
 Static damping         CNVDamp         .... on
   Fraction old density DampFac         ....    0.7000
   Max. Damping (<1)    DampMax         ....    0.9800
   Min. Damping (>=0)   DampMin         ....    0.0000
   Turn off err/grad.   DampErr         ....    0.1000
 Fernandez-Rico         CNVRico         .... off

SCF Procedure:
 Maximum # iterations   MaxIter         ....   125
 SCF integral mode      SCFMode         .... Direct
   Integral package                     .... LIBINT
 Reset frequency        DirectResetFreq ....    20
 Integral Threshold     Thresh          ....  1.000e-10 Eh
 Primitive CutOff       TCut            ....  1.000e-11 Eh

Convergence Tolerance:
 Convergence Check Mode ConvCheckMode   .... Total+1el-Energy
 Convergence forced     ConvForced      .... 0
 Energy Change          TolE            ....  1.000e-06 Eh
 1-El. energy change                    ....  1.000e-03 Eh
 DIIS Error             TolErr          ....  1.000e-06


Diagonalization of the overlap matrix:
Smallest eigenvalue                        ... 3.564e-04
Time for diagonalization                   ...    0.005 sec
Threshold for overlap eigenvalues          ... 1.000e-08
Number of eigenvalues below threshold      ... 0
Time for construction of square roots      ...    0.003 sec
Total time needed                          ...    0.008 sec

-------------------
DFT GRID GENERATION
-------------------

General Integration Accuracy     IntAcc      ...  4.670
Radial Grid Type                 RadialGrid  ... Gauss-Chebyshev
Angular Grid (max. acc.)         AngularGrid ... Lebedev-302
Angular grid pruning method      GridPruning ... 3 (G Style)
Weight generation scheme         WeightScheme... Becke
Basis function cutoff            BFCut       ...    1.0000e-10
Integration weight cutoff        WCut        ...    1.0000e-14
Grids for H and He will be reduced by one unit

# of grid points (after initial pruning)     ...  15768 (   0.0 sec)
# of grid points (after weights+screening)   ...  15731 (   0.0 sec)
nearest neighbour list constructed           ...    0.0 sec
Grid point re-assignment to atoms done       ...    0.0 sec
Grid point division into batches done        ...    0.1 sec
Reduced shell lists constructed in    0.1 sec

Total number of grid points                  ...    15731
Total number of batches                      ...      247
Average number of points per batch           ...       63
Average number of grid points per atom       ...     7866
Average number of shells per batch           ...    14.17 (36.32%)
Average number of basis functions per batch  ...    32.17 (23.14%)
Average number of large shells per batch     ...     7.75 (54.71%)
Average number of large basis fcns per batch ...    18.42 (57.25%)
Maximum spatial batch extension              ...  22.45, 22.17, 15.93 au
Average spatial batch extension              ...   0.81,  0.80,  0.61 au

Time for grid setup =    0.177 sec

------------------------------
INITIAL GUESS: MODEL POTENTIAL
------------------------------
Loading Hartree-Fock densities                     ... done
Calculating cut-offs                               ... done
Setting up the integral package                    ... done
Initializing the effective Hamiltonian             ... done
Starting the Coulomb interaction                   ... done (   0.0 sec)
Reading the grid                                   ... done
Mapping shells                                     ... done
Starting the XC term evaluation                    ... done (   0.0 sec)
  promolecular density results
     # of electrons  =     37.000019605
     EX              =    -83.290998842
     EC              =     -0.655302322
     EX+EC           =    -83.946301164
Transforming the Hamiltonian                       ... done (   0.0 sec)
Diagonalizing the Hamiltonian                      ... done (   0.0 sec)
Back transforming the eigenvectors                 ... done (   0.0 sec)
Now organizing SCF variables                       ... done
                      ------------------
                      INITIAL GUESS DONE (   0.3 sec)
                      ------------------
--------------
SCF ITERATIONS
--------------
ITER       Energy         Delta-E        Max-DP      RMS-DP      [F,P]     Damp
               ***  Starting incremental Fock matrix formation  ***
  0  -1715.2579472446   0.000000000000 0.14897354  0.00286124  0.8318448 0.7000
  1  -1715.4447510683  -0.186803823726 0.03904264  0.00089855  0.1722957 0.7000
                               ***Turning on DIIS***
  2  -1715.5408408947  -0.096089826436 0.08303103  0.00182979  0.0833687 0.0000
  3  -1715.7656153297  -0.224774435010 0.01530404  0.00027433  0.2563184 0.7000
  4  -1715.7846447712  -0.019029441436 0.01374403  0.00025051  0.2207418 0.7000
  5  -1715.7967708059  -0.012126034720 0.00713123  0.00019421  0.1835809 0.7000
  6  -1715.8038156318  -0.007044825901 0.00620708  0.00015365  0.1576517 0.7000
  7  -1715.8089808925  -0.005165260680 0.01424131  0.00034348  0.1382763 0.7000
  8  -1715.8198938403  -0.010912947848 0.03338077  0.00067659  0.0499721 0.0000
  9  -1715.8265014549  -0.006607614595 0.00740993  0.00019991  0.0712904 0.0000
 10  -1715.8299096258  -0.003408170880 0.00570207  0.00007171  0.0280460 0.0000
 11  -1715.8305015875  -0.000591961711 0.00362913  0.00004609  0.0098906 0.0000
 12  -1715.8306284056  -0.000126818057 0.00237503  0.00002655  0.0020443 0.0000
 13  -1715.8306526780  -0.000024272472 0.00394215  0.00005149  0.0009710 0.0000
 14  -1715.8306772666  -0.000024588509 0.00052477  0.00000804  0.0025099 0.0000
 15  -1715.8306837194  -0.000006452802 0.00093198  0.00001252  0.0015547 0.0000
 16  -1715.8306906737  -0.000006954338 0.00331718  0.00004140  0.0006022 0.0000
 17  -1715.8307061813  -0.000015507597 0.00096385  0.00001460  0.0004460 0.0000
 18  -1715.8307112647  -0.000005083443 0.00065330  0.00000696  0.0004371 0.0000
 19  -1715.8307128858  -0.000001621056 0.00087952  0.00001286  0.0004575 0.0000
               *** Restarting incremental Fock matrix formation ***
                                   *** Resetting DIIS ***
 20  -1715.8307197902  -0.000006904449 0.00148273  0.00002390  0.0005942 0.0000
 21  -1715.8307231029  -0.000003312690 0.00033449  0.00000358  0.0012693 0.0000
 22  -1715.8307261670  -0.000003064044 0.00080428  0.00001068  0.0004147 0.0000
 23  -1715.8307277970  -0.000001630018 0.00120194  0.00001626  0.0005114 0.0000
 24  -1715.8307315331  -0.000003736142 0.00057538  0.00000772  0.0003306 0.0000
 25  -1715.8307327763  -0.000001243185 0.00093316  0.00001223  0.0002470 0.0000
 26  -1715.8307348371  -0.000002060735 0.00056248  0.00000776  0.0002672 0.0000
 27  -1715.8307358505  -0.000001013459 0.00318389  0.00004436  0.0001969 0.0000
 28  -1715.8307410361  -0.000005185565 0.00045375  0.00000635  0.0000343 0.0000
 29  -1715.8307414182  -0.000000382129 0.00187070  0.00002660  0.0001267 0.0000
 30  -1715.8307423304  -0.000000912180 0.00030102  0.00000417  0.0000444 0.0000
 31  -1715.8307424109  -0.000000080518 0.00033960  0.00000470  0.0000519 0.0000
                 **** Energy Check signals convergence ****

               *****************************************************
               *                     SUCCESS                       *
               *           SCF CONVERGED AFTER  32 CYCLES          *
               *****************************************************


----------------
TOTAL SCF ENERGY
----------------

Total Energy       :        -1715.83074207 Eh          -46690.12817 eV

Components:
Nuclear Repulsion  :           71.27047998 Eh            1939.36836 eV
Electronic Energy  :        -1787.10122205 Eh          -48629.49653 eV
One Electron Energy:        -2532.46194984 Eh          -68911.79306 eV
Two Electron Energy:          745.36072779 Eh           20282.29654 eV

Virial components:
Potential Energy   :        -3429.92224444 Eh          -93332.92923 eV
Kinetic Energy     :         1714.09150237 Eh           46642.80105 eV
Virial Ratio       :            2.00101467


DFT components:
N(Alpha)           :       19.000008126817 electrons
N(Beta)            :       18.000008299845 electrons
N(Total)           :       37.000016426662 electrons
E(X)               :      -74.173142899114 Eh       
E(C)               :       -1.639176920319 Eh       
E(XC)              :      -75.812319819433 Eh       
DFET-embed. en.    :        0.000000000000 Eh       

---------------
SCF CONVERGENCE
---------------

  Last Energy change         ...    3.3920e-07  Tolerance :   1.0000e-06
  Last MAX-Density change    ...    1.2993e-04  Tolerance :   1.0000e-05
  Last RMS-Density change    ...    1.9092e-06  Tolerance :   1.0000e-06
  Last DIIS Error            ...    1.5584e-05  Tolerance :   1.0000e-06

             **** THE GBW FILE WAS UPDATED (53_CuO.gbw) ****
             **** DENSITY FILE WAS UPDATED (53_CuO.scfp) ****
             **** ENERGY FILE WAS UPDATED (53_CuO.en.tmp) ****
----------------------
UHF SPIN CONTAMINATION
----------------------

Warning: in a DFT calculation there is little theoretical justification to 
         calculate <S**2> as in Hartree-Fock theory. We will do it anyways
         but you should keep in mind that the values have only limited relevance

Expectation value of <S**2>     :     0.785338
Ideal value S*(S+1) for S=0.5   :     0.750000
Deviation                       :     0.035338

             **** THE GBW FILE WAS UPDATED (53_CuO.gbw) ****
             **** DENSITY FILE WAS UPDATED (53_CuO.scfp) ****
----------------
ORBITAL ENERGIES
----------------
                 SPIN UP ORBITALS
  NO   OCC          E(Eh)            E(eV) 
   0   1.0000    -322.547677     -8776.9685 
   1   1.0000     -38.607753     -1050.5704 
   2   1.0000     -33.828872      -920.5304 
   3   1.0000     -33.828172      -920.5114 
   4   1.0000     -33.826235      -920.4587 
   5   1.0000     -18.953453      -515.7497 
   6   1.0000      -4.331982      -117.8792 
   7   1.0000      -2.822650       -76.8082 
   8   1.0000      -2.804736       -76.3208 
   9   1.0000      -2.794705       -76.0478 
  10   1.0000      -0.885285       -24.0898 
  11   1.0000      -0.350700        -9.5430 
  12   1.0000      -0.348587        -9.4855 
  13   1.0000      -0.314162        -8.5488 
  14   1.0000      -0.271483        -7.3874 
  15   1.0000      -0.270959        -7.3732 
  16   1.0000      -0.269618        -7.3367 
  17   1.0000      -0.237113        -6.4522 
  18   1.0000      -0.229937        -6.2569 
  19   0.0000      -0.136431        -3.7125 
  20   0.0000      -0.011570        -0.3148 
  21   0.0000      -0.006302        -0.1715 
  22   0.0000       0.016124         0.4388 
  23   0.0000       0.023721         0.6455 
  24   0.0000       0.046112         1.2548 
  25   0.0000       0.048160         1.3105 
  26   0.0000       0.082804         2.2532 
  27   0.0000       0.134056         3.6478 
  28   0.0000       0.142254         3.8709 
  29   0.0000       0.142389         3.8746 
  30   0.0000       0.153574         4.1789 
  31   0.0000       0.154351         4.2001 
  32   0.0000       0.159485         4.3398 
  33   0.0000       0.214820         5.8456 
  34   0.0000       0.215864         5.8740 
  35   0.0000       0.216104         5.8805 
  36   0.0000       0.220518         6.0006 
  37   0.0000       0.223892         6.0924 
  38   0.0000       0.281510         7.6603 
  39   0.0000       0.429876        11.6975 
  40   0.0000       0.547666        14.9028 
  41   0.0000       0.547697        14.9036 
  42   0.0000       0.599849        16.3227 
  43   0.0000       0.609386        16.5822 
  44   0.0000       0.612344        16.6627 
  45   0.0000       0.612408        16.6645 
  46   0.0000       0.642306        17.4780 
  47   0.0000       0.675713        18.3871 
  48   0.0000       0.720815        19.6144 
  49   0.0000       0.735422        20.0118 
  50   0.0000       0.774438        21.0735 
  51   0.0000       0.887745        24.1568 
  52   0.0000       0.908121        24.7112 
  53   0.0000       0.957258        26.0483 
  54   0.0000       0.966644        26.3037 
  55   0.0000       1.044406        28.4197 
  56   0.0000       1.163724        31.6665 
  57   0.0000       1.418379        38.5960 
  58   0.0000       1.418412        38.5970 
  59   0.0000       1.446930        39.3730 
  60   0.0000       1.447345        39.3843 
  61   0.0000       1.641621        44.6708 
  62   0.0000       1.656034        45.0630 
  63   0.0000       1.785746        48.5926 
  64   0.0000       1.835426        49.9445 
  65   0.0000       1.935377        52.6643 
  66   0.0000       1.935997        52.6812 
  67   0.0000       1.943769        52.8926 
  68   0.0000       1.944126        52.9024 
  69   0.0000       1.986761        54.0625 
  70   0.0000       2.004427        54.5432 
  71   0.0000       2.014323        54.8125 
  72   0.0000       2.092406        56.9373 
  73   0.0000       2.092415        56.9375 
  74   0.0000       2.146706        58.4148 
  75   0.0000       2.176945        59.2377 
  76   0.0000       2.213440        60.2308 
  77   0.0000       2.213862        60.2422 
  78   0.0000       2.362058        64.2749 
  79   0.0000       2.840801        77.3021 
  80   0.0000       2.862708        77.8983 
  81   0.0000       3.419236        93.0421 
  82   0.0000       3.797521       103.3358 
  83   0.0000       3.805488       103.5526 
  84   0.0000       3.848672       104.7277 
  85   0.0000       4.181807       113.7928 
  86   0.0000       4.266350       116.0933 
  87   0.0000       4.273313       116.2827 
  88   0.0000       4.362551       118.7110 
  89   0.0000       4.362554       118.7111 
  90   0.0000       4.421824       120.3239 
  91   0.0000       4.422086       120.3311 
  92   0.0000       4.559795       124.0783 
  93   0.0000       4.569660       124.3468 
  94   0.0000       4.669899       127.0744 
  95   0.0000       4.955324       134.8412 
  96   0.0000       6.070402       165.1840 
  97   0.0000       6.070499       165.1867 
  98   0.0000       6.072541       165.2422 
  99   0.0000       6.077225       165.3697 
 100   0.0000       6.091176       165.7493 
 101   0.0000       6.096272       165.8880 
 102   0.0000       6.096312       165.8891 
 103   0.0000       6.127856       166.7474 
 104   0.0000       6.151523       167.3915 
 105   0.0000       6.220764       169.2756 
 106   0.0000       6.221527       169.2964 
 107   0.0000       6.353975       172.9005 
 108   0.0000       6.357035       172.9837 
 109   0.0000       6.466921       175.9739 
 110   0.0000       6.516110       177.3124 
 111   0.0000       6.596464       179.4989 
 112   0.0000       6.607505       179.7993 
 113   0.0000       6.789860       184.7615 
 114   0.0000       6.908949       188.0021 
 115   0.0000       6.959098       189.3667 
 116   0.0000       7.221444       196.5055 
 117   0.0000       7.914611       215.3675 
 118   0.0000       7.914806       215.3728 
 119   0.0000       8.155465       221.9215 
 120   0.0000       8.171948       222.3700 
 121   0.0000       9.069941       246.8056 
 122   0.0000      11.009759       299.5908 
 123   0.0000      14.080298       383.1444 
 124   0.0000      14.080332       383.1453 
 125   0.0000      14.100523       383.6947 
 126   0.0000      14.101319       383.7164 
 127   0.0000      14.185833       386.0161 
 128   0.0000      14.200332       386.4107 
 129   0.0000      14.263173       388.1207 
 130   0.0000      16.695614       454.3108 
 131   0.0000      16.695627       454.3111 
 132   0.0000      16.701618       454.4741 
 133   0.0000      16.701665       454.4754 
 134   0.0000      16.727316       455.1734 
 135   0.0000      16.727652       455.1826 
 136   0.0000      16.845042       458.3769 
 137   0.0000      16.858247       458.7362 
 138   0.0000      16.994481       462.4433 

                 SPIN DOWN ORBITALS
  NO   OCC          E(Eh)            E(eV) 
   0   1.0000    -322.547319     -8776.9587 
   1   1.0000     -38.599242     -1050.3388 
   2   1.0000     -33.823598      -920.3869 
   3   1.0000     -33.821860      -920.3396 
   4   1.0000     -33.821455      -920.3286 
   5   1.0000     -18.952008      -515.7104 
   6   1.0000      -4.315808      -117.4391 
   7   1.0000      -2.798963       -76.1636 
   8   1.0000      -2.790864       -75.9433 
   9   1.0000      -2.787346       -75.8475 
  10   1.0000      -0.798886       -21.7388 
  11   1.0000      -0.330565        -8.9951 
  12   1.0000      -0.304881        -8.2962 
  13   1.0000      -0.273864        -7.4522 
  14   1.0000      -0.269390        -7.3305 
  15   1.0000      -0.267890        -7.2897 
  16   1.0000      -0.231073        -6.2878 
  17   1.0000      -0.205794        -5.5999 
  18   0.0000      -0.153211        -4.1691 
  19   0.0000      -0.133974        -3.6456 
  20   0.0000      -0.009467        -0.2576 
  21   0.0000      -0.002764        -0.0752 
  22   0.0000       0.019038         0.5180 
  23   0.0000       0.025152         0.6844 
  24   0.0000       0.047355         1.2886 
  25   0.0000       0.047821         1.3013 
  26   0.0000       0.084957         2.3118 
  27   0.0000       0.137507         3.7418 
  28   0.0000       0.147238         4.0065 
  29   0.0000       0.148337         4.0365 
  30   0.0000       0.162296         4.4163 
  31   0.0000       0.166601         4.5334 
  32   0.0000       0.169963         4.6249 
  33   0.0000       0.217293         5.9128 
  34   0.0000       0.221997         6.0409 
  35   0.0000       0.223587         6.0841 
  36   0.0000       0.226448         6.1620 
  37   0.0000       0.234228         6.3737 
  38   0.0000       0.288200         7.8423 
  39   0.0000       0.436897        11.8886 
  40   0.0000       0.555862        15.1258 
  41   0.0000       0.557857        15.1801 
  42   0.0000       0.612138        16.6571 
  43   0.0000       0.616606        16.7787 
  44   0.0000       0.623865        16.9762 
  45   0.0000       0.624265        16.9871 
  46   0.0000       0.652678        17.7603 
  47   0.0000       0.688810        18.7435 
  48   0.0000       0.746450        20.3119 
  49   0.0000       0.750285        20.4163 
  50   0.0000       0.782856        21.3026 
  51   0.0000       0.922589        25.1049 
  52   0.0000       0.928316        25.2608 
  53   0.0000       0.973117        26.4799 
  54   0.0000       0.978558        26.6279 
  55   0.0000       1.058742        28.8098 
  56   0.0000       1.184829        32.2408 
  57   0.0000       1.421050        38.6687 
  58   0.0000       1.422001        38.6946 
  59   0.0000       1.447316        39.3835 
  60   0.0000       1.450632        39.4737 
  61   0.0000       1.654446        45.0198 
  62   0.0000       1.666035        45.3351 
  63   0.0000       1.806311        49.1522 
  64   0.0000       1.862036        50.6686 
  65   0.0000       1.943206        52.8773 
  66   0.0000       1.945790        52.9476 
  67   0.0000       1.983366        53.9701 
  68   0.0000       1.996128        54.3174 
  69   0.0000       2.003202        54.5099 
  70   0.0000       2.025649        55.1207 
  71   0.0000       2.027334        55.1666 
  72   0.0000       2.103096        57.2282 
  73   0.0000       2.104202        57.2583 
  74   0.0000       2.180181        59.3257 
  75   0.0000       2.186557        59.4992 
  76   0.0000       2.223696        60.5098 
  77   0.0000       2.226803        60.5944 
  78   0.0000       2.370360        64.5008 
  79   0.0000       2.862462        77.8915 
  80   0.0000       2.868999        78.0694 
  81   0.0000       3.465792        94.3090 
  82   0.0000       3.817296       103.8739 
  83   0.0000       3.883511       105.6757 
  84   0.0000       3.914454       106.5177 
  85   0.0000       4.215628       114.7131 
  86   0.0000       4.274377       116.3117 
  87   0.0000       4.285579       116.6165 
  88   0.0000       4.369556       118.9017 
  89   0.0000       4.369814       118.9087 
  90   0.0000       4.434499       120.6688 
  91   0.0000       4.434965       120.6815 
  92   0.0000       4.570628       124.3731 
  93   0.0000       4.579539       124.6156 
  94   0.0000       4.683857       127.4542 
  95   0.0000       4.972234       135.3014 
  96   0.0000       6.078338       165.4000 
  97   0.0000       6.078920       165.4158 
  98   0.0000       6.087093       165.6382 
  99   0.0000       6.087697       165.6547 
 100   0.0000       6.097250       165.9146 
 101   0.0000       6.101410       166.0278 
 102   0.0000       6.101429       166.0283 
 103   0.0000       6.153558       167.4468 
 104   0.0000       6.154544       167.4737 
 105   0.0000       6.238823       169.7670 
 106   0.0000       6.239284       169.7795 
 107   0.0000       6.367708       173.2741 
 108   0.0000       6.369392       173.3200 
 109   0.0000       6.497145       176.7963 
 110   0.0000       6.501704       176.9204 
 111   0.0000       6.676869       181.6868 
 112   0.0000       6.687142       181.9664 
 113   0.0000       6.804078       185.1484 
 114   0.0000       6.964056       189.5016 
 115   0.0000       6.991793       190.2564 
 116   0.0000       7.223660       196.5658 
 117   0.0000       7.923088       215.5982 
 118   0.0000       7.923351       215.6053 
 119   0.0000       8.178165       222.5392 
 120   0.0000       8.189139       222.8378 
 121   0.0000       9.089497       247.3378 
 122   0.0000      11.063748       301.0599 
 123   0.0000      14.083172       383.2226 
 124   0.0000      14.083208       383.2236 
 125   0.0000      14.119974       384.2240 
 126   0.0000      14.122614       384.2959 
 127   0.0000      14.203502       386.4969 
 128   0.0000      14.205124       386.5411 
 129   0.0000      14.267244       388.2315 
 130   0.0000      16.707040       454.6217 
 131   0.0000      16.707355       454.6303 
 132   0.0000      16.708014       454.6482 
 133   0.0000      16.708095       454.6504 
 134   0.0000      16.739772       455.5123 
 135   0.0000      16.742185       455.5780 
 136   0.0000      16.858428       458.7411 
 137   0.0000      16.863920       458.8906 
 138   0.0000      17.005665       462.7477 

                    ********************************
                    * MULLIKEN POPULATION ANALYSIS *
                    ********************************

--------------------------------------------
MULLIKEN ATOMIC CHARGES AND SPIN POPULATIONS
--------------------------------------------
   0 Cu:    0.581283    0.048931
   1 O :   -0.581283    0.951069
Sum of atomic charges         :    0.0000000
Sum of atomic spin populations:    1.0000000

-----------------------------------------------------
MULLIKEN REDUCED ORBITAL CHARGES AND SPIN POPULATIONS
-----------------------------------------------------
CHARGE
  0 Cus       :     6.634791  s :     6.634791
      pz      :     4.033260  p :    12.155464
      px      :     4.093409
      py      :     4.028795
      dz2     :     1.793045  d :     9.618059
      dxz     :     1.984994
      dyz     :     1.844741
      dx2y2   :     1.996164
      dxy     :     1.999116
      f0      :     0.004473  f :     0.010202
      f+1     :     0.003725
      f-1     :     0.001783
      f+2     :     0.000118
      f-2     :     0.000097
      f+3     :     0.000004
      f-3     :     0.000003
      g0      :     0.000083  g :     0.000200
      g+1     :     0.000064
      g-1     :     0.000047
      g+2     :     0.000003
      g-2     :     0.000002
      g+3     :     0.000001
      g-3     :     0.000001
      g+4     :     0.000001
      g-4     :     0.000001
  1 O s       :     3.991082  s :     3.991082
      pz      :     1.541693  p :     4.569362
      px      :     1.883528
      py      :     1.144141
      dz2     :     0.004012  d :     0.016595
      dxz     :     0.005658
      dyz     :     0.006229
      dx2y2   :     0.000509
      dxy     :     0.000187
      f0      :     0.000815  f :     0.004243
      f+1     :     0.001101
      f-1     :     0.001652
      f+2     :     0.000289
      f-2     :     0.000259
      f+3     :     0.000061
      f-3     :     0.000065

SPIN
  0 Cus       :    -0.116118  s :    -0.116118
      pz      :    -0.003359  p :    -0.008610
      px      :    -0.024556
      py      :     0.019305
      dz2     :     0.015991  d :     0.171725
      dxz     :     0.006348
      dyz     :     0.146201
      dx2y2   :     0.002851
      dxy     :     0.000334
      f0      :     0.000269  f :     0.001917
      f+1     :     0.000007
      f-1     :     0.001637
      f+2     :    -0.000005
      f-2     :     0.000013
      f+3     :    -0.000002
      f-3     :    -0.000001
      g0      :     0.000002  g :     0.000016
      g+1     :    -0.000002
      g-1     :     0.000014
      g+2     :     0.000001
      g-2     :     0.000001
      g+3     :     0.000000
      g-3     :     0.000000
      g+4     :     0.000000
      g-4     :     0.000000
  1 O s       :     0.004933  s :     0.004933
      pz      :     0.095816  p :     0.948845
      px      :     0.046098
      py      :     0.806931
      dz2     :    -0.000574  d :    -0.001904
      dxz     :    -0.000417
      dyz     :    -0.000943
      dx2y2   :     0.000023
      dxy     :     0.000007
      f0      :    -0.000154  f :    -0.000804
      f+1     :    -0.000075
      f-1     :    -0.000654
      f+2     :    -0.000007
      f-2     :    -0.000022
      f+3     :     0.000055
      f-3     :     0.000053


                     *******************************
                     * LOEWDIN POPULATION ANALYSIS *
                     *******************************

-------------------------------------------
LOEWDIN ATOMIC CHARGES AND SPIN POPULATIONS
-------------------------------------------
   0 Cu:    0.402170    0.126392
   1 O :   -0.402170    0.873608

----------------------------------------------------
LOEWDIN REDUCED ORBITAL CHARGES AND SPIN POPULATIONS
----------------------------------------------------
CHARGE
  0 Cus       :     6.504968  s :     6.504968
      pz      :     4.140155  p :    12.289292
      px      :     4.123540
      py      :     4.025597
      dz2     :     1.903463  d :     9.724884
      dxz     :     2.001553
      dyz     :     1.837178
      dx2y2   :     1.989874
      dxy     :     1.992815
      f0      :     0.038184  f :     0.077513
      f+1     :     0.025074
      f-1     :     0.013729
      f+2     :     0.000272
      f-2     :     0.000247
      f+3     :     0.000004
      f-3     :     0.000003
      g0      :     0.000656  g :     0.001173
      g+1     :     0.000328
      g-1     :     0.000184
      g+2     :     0.000002
      g-2     :     0.000001
      g+3     :     0.000001
      g-3     :     0.000001
      g+4     :     0.000001
      g-4     :     0.000001
  1 O s       :     3.637843  s :     3.637843
      pz      :     1.625890  p :     4.472229
      px      :     1.758855
      py      :     1.087485
      dz2     :     0.103852  d :     0.183108
      dxz     :     0.035610
      dyz     :     0.036690
      dx2y2   :     0.003634
      dxy     :     0.003323
      f0      :     0.048246  f :     0.108989
      f+1     :     0.027519
      f-1     :     0.026525
      f+2     :     0.003300
      f-2     :     0.003274
      f+3     :     0.000061
      f-3     :     0.000065

SPIN
  0 Cus       :    -0.092176  s :    -0.092176
      pz      :    -0.005393  p :     0.009741
      px      :    -0.027758
      py      :     0.042892
      dz2     :     0.015539  d :     0.193717
      dxz     :     0.006029
      dyz     :     0.168742
      dx2y2   :     0.002958
      dxy     :     0.000448
      f0      :     0.002121  f :     0.014896
      f+1     :     0.000653
      f-1     :     0.012105
      f+2     :     0.000001
      f-2     :     0.000020
      f+3     :    -0.000002
      f-3     :    -0.000001
      g0      :     0.000045  g :     0.000215
      g+1     :     0.000009
      g-1     :     0.000159
      g+2     :     0.000000
      g-2     :     0.000001
      g+3     :     0.000000
      g-3     :     0.000000
      g+4     :     0.000000
      g-4     :     0.000000
  1 O s       :     0.010549  s :     0.010549
      pz      :     0.066912  p :     0.863642
      px      :     0.048156
      py      :     0.748574
      dz2     :    -0.000756  d :    -0.001753
      dxz     :     0.000165
      dyz     :    -0.001039
      dx2y2   :    -0.000050
      dxy     :    -0.000073
      f0      :    -0.000036  f :     0.001170
      f+1     :     0.000150
      f-1     :     0.001059
      f+2     :    -0.000046
      f-2     :    -0.000065
      f+3     :     0.000055
      f-3     :     0.000053


                      *****************************
                      * MAYER POPULATION ANALYSIS *
                      *****************************

  NA   - Mulliken gross atomic population
  ZA   - Total nuclear charge
  QA   - Mulliken gross atomic charge
  VA   - Mayer's total valence
  BVA  - Mayer's bonded valence
  FA   - Mayer's free valence

  ATOM       NA         ZA         QA         VA         BVA        FA
  0 Cu    28.4187    29.0000     0.5813     1.3192     1.2321     0.0872
  1 O      8.5813     8.0000    -0.5813     1.9393     1.2321     0.7073

  Mayer bond orders larger than 0.100000
B(  0-Cu,  1-O ) :   1.2321 

-------
TIMINGS
-------

Total SCF time: 0 days 0 hours 0 min 6 sec 

Total time                  ....       6.154 sec
Sum of individual times     ....       5.986 sec  ( 97.3%)

Fock matrix formation       ....       5.463 sec  ( 88.8%)
  Split-RI-J                ....       4.038 sec  ( 73.9% of F)
  XC integration            ....       1.244 sec  ( 22.8% of F)
    Basis function eval.    ....       0.166 sec  ( 13.3% of XC)
    Density eval.           ....       0.168 sec  ( 13.5% of XC)
    XC-Functional eval.     ....       0.035 sec  (  2.8% of XC)
    XC-Potential eval.      ....       0.496 sec  ( 39.9% of XC)
Diagonalization             ....       0.162 sec  (  2.6%)
Density matrix formation    ....       0.019 sec  (  0.3%)
Population analysis         ....       0.007 sec  (  0.1%)
Initial guess               ....       0.098 sec  (  1.6%)
Orbital Transformation      ....       0.000 sec  (  0.0%)
Orbital Orthonormalization  ....       0.000 sec  (  0.0%)
DIIS solution               ....       0.058 sec  (  0.9%)
Grid generation             ....       0.177 sec  (  2.9%)


-------------------------------------------------------------------------------
                          DFT DISPERSION CORRECTION                            
                                                                               
                              DFTD3 V3.1  Rev 1                                
                          USING Becke-Johnson damping                          
-------------------------------------------------------------------------------
The SCAN functional is recognized
Active option DFTDOPT                   ...         4   

molecular C6(AA) [au] = 276.305245 


            DFT-D V3
 parameters
 s6 scaling factor         :     1.0000 
 a1 scaling factor         :     0.5380 
 s8 scaling factor         :     0.0000 
 a2 scaling factor         :     5.4200 
 ad hoc parameters k1-k3   :    16.0000     1.3333    -4.0000 

 Edisp/kcal,au: -0.055962679051  -0.000089182196 
 E6   /kcal   :  -0.055962679 
 E8   /kcal   :  -0.000000000 
 % E8         :   0.000000000 

-------------------------   ----------------
Dispersion correction           -0.000089182
-------------------------   ----------------


-------------------------   --------------------
FINAL SINGLE POINT ENERGY     -1715.830831253903
-------------------------   --------------------


                            ***************************************
                            *     ORCA property calculations      *
                            ***************************************

                                    ---------------------
                                    Active property flags
                                    ---------------------
   (+) Dipole Moment


------------------------------------------------------------------------------
                       ORCA ELECTRIC PROPERTIES CALCULATION
------------------------------------------------------------------------------

Dipole Moment Calculation                       ... on
Quadrupole Moment Calculation                   ... off
Polarizability Calculation                      ... off
GBWName                                         ... 53_CuO.gbw
Electron density file                           ... 53_CuO.scfp
The origin for moment calculation is the CENTER OF MASS  = ( 0.000000,  0.000000  0.916815)

-------------
DIPOLE MOMENT
-------------
                                X             Y             Z
Electronic contribution:     -0.00000      -0.00000      -3.54502
Nuclear contribution   :      0.00000       0.00000       1.81807
                        -----------------------------------------
Total Dipole Moment    :     -0.00000      -0.00000      -1.72695
                        -----------------------------------------
Magnitude (a.u.)       :      1.72695
Magnitude (Debye)      :      4.38957



--------------------
Rotational spectrum 
--------------------
 
Rotational constants in cm-1:     0.000000     0.444492     0.444492 
Rotational constants in MHz :     0.000000 13325.547784 13325.547784 

 Dipole components along the rotational axes: 
x,y,z [a.u.] :    -1.726954    -0.000000    -0.000000 
x,y,z [Debye]:    -4.389569    -0.000000    -0.000000 

 

Timings for individual modules:

Sum of individual times         ...        9.270 sec (=   0.154 min)
GTO integral calculation        ...        2.778 sec (=   0.046 min)  30.0 %
SCF iterations                  ...        6.491 sec (=   0.108 min)  70.0 %
                             ****ORCA TERMINATED NORMALLY****
TOTAL RUN TIME: 0 days 0 hours 0 minutes 9 seconds 847 msec
