
                                 *****************
                                 * O   R   C   A *
                                 *****************

           --- An Ab Initio, DFT and Semiempirical electronic structure package ---

                  #######################################################
                  #                        -***-                        #
                  #          Department of theory and spectroscopy      #
                  #               Directorship: Frank Neese             #
                  #        Max Planck Institute fuer Kohlenforschung    #
                  #                Kaiser Wilhelm Platz 1               #
                  #                 D-45470 Muelheim/Ruhr               #
                  #                      Germany                        #
                  #                                                     #
                  #                  All rights reserved                #
                  #                        -***-                        #
                  #######################################################


                         Program Version 4.2.0 -  RELEASE  -


 With contributions from (in alphabetic order):
   Daniel Aravena         : Magnetic Suceptibility
   Michael Atanasov       : Ab Initio Ligand Field Theory (pilot matlab implementation)
   Alexander A. Auer      : GIAO ZORA, VPT2
   Ute Becker             : Parallelization
   Giovanni Bistoni       : ED, misc. LED, open-shell LED, HFLED
   Martin Brehm           : Molecular dynamics
   Dmytro Bykov           : SCF Hessian
   Vijay G. Chilkuri      : MRCI spin determinant printing, contributions to CSF-ICE
   Dipayan Datta          : RHF DLPNO-CCSD density
   Achintya Kumar Dutta   : EOM-CC, STEOM-CC
   Dmitry Ganyushin       : Spin-Orbit,Spin-Spin,Magnetic field MRCI
   Miquel Garcia          : C-PCM Hessian, Gaussian charge scheme
   Yang Guo               : DLPNO-NEVPT2, CIM, IAO-localization
   Andreas Hansen         : Spin unrestricted coupled pair/coupled cluster methods
   Benjamin Helmich-Paris : CASSCF linear response (MC-RPA)
   Lee Huntington         : MR-EOM, pCC
   Robert Izsak           : Overlap fitted RIJCOSX, COSX-SCS-MP3, EOM
   Christian Kollmar      : KDIIS, OOCD, Brueckner-CCSD(T), CCSD density
   Simone Kossmann        : Meta GGA functionals, TD-DFT gradient, OOMP2, MP2 Hessian
   Martin Krupicka        : AUTO-CI
   Lucas Lang             : DCDCAS
   Dagmar Lenk            : GEPOL surface, SMD
   Dimitrios Liakos       : Extrapolation schemes; Compound Job, initial MDCI parallelization
   Dimitrios Manganas     : Further ROCIS development; embedding schemes
   Dimitrios Pantazis     : SARC Basis sets
   Taras Petrenko         : DFT Hessian,TD-DFT gradient, ASA, ECA, R-Raman, ABS, FL, XAS/XES, NRVS
   Peter Pinski           : DLPNO-MP2, DLPNO-MP2 Gradient
   Christoph Reimann      : Effective Core Potentials
   Marius Retegan         : Local ZFS, SOC
   Christoph Riplinger    : Optimizer, TS searches, QM/MM, DLPNO-CCSD(T), (RO)-DLPNO pert. Triples
   Tobias Risthaus        : Range-separated hybrids, TD-DFT gradient, RPA, STAB
   Michael Roemelt        : Original ROCIS implementation
   Masaaki Saitow         : Open-shell DLPNO-CCSD energy and density
   Barbara Sandhoefer     : DKH picture change effects
   Avijit Sen             : IP-ROCIS
   Kantharuban Sivalingam : CASSCF convergence, NEVPT2, FIC-MRCI
   Bernardo de Souza      : ESD, SOC TD-DFT
   Georgi Stoychev        : AutoAux, RI-MP2 NMR
   Willem Van den Heuvel  : Paramagnetic NMR
   Boris Wezisla          : Elementary symmetry handling
   Frank Wennmohs         : Technical directorship


 We gratefully acknowledge several colleagues who have allowed us to
 interface, adapt or use parts of their codes:
   Stefan Grimme, W. Hujo, H. Kruse,             : VdW corrections, initial TS optimization,
                  C. Bannwarth                     DFT functionals, gCP, sTDA/sTD-DF
   Ed Valeev, F. Pavosevic, A. Kumar             : LibInt (2-el integral package), F12 methods
   Garnet Chan, S. Sharma, J. Yang, R. Olivares  : DMRG
   Ulf Ekstrom                                   : XCFun DFT Library
   Mihaly Kallay                                 : mrcc  (arbitrary order and MRCC methods)
   Andreas Klamt, Michael Diedenhofen            : otool_cosmo (COSMO solvation model)
   Jiri Pittner, Ondrej Demel                    : Mk-CCSD
   Frank Weinhold                                : gennbo (NPA and NBO analysis)
   Christopher J. Cramer and Donald G. Truhlar   : smd solvation model
   Lars Goerigk                                  : TD-DFT with DH, B97 family of functionals
   V. Asgeirsson, H. Jonsson                     : NEB implementation
   FAccTs GmbH                                   : IRC, NEB, NEB-TS, Multilevel, MM, QM/MM, CI optimization
   S Lehtola, MJT Oliveira, MAL Marques          : LibXC Library


 Your calculation uses the libint2 library for the computation of 2-el integrals
 For citations please refer to: http://libint.valeyev.net

 Your ORCA version has been built with support for libXC version: 4.2.3
 For citations please refer to: https://tddft.org/programs/libxc/

 This ORCA versions uses:
   CBLAS   interface :  Fast vector & matrix operations
   LAPACKE interface :  Fast linear algebra routines
   SCALAPACK package :  Parallel linear algebra routines


Your calculation utilizes the atom-pairwise dispersion correction
with the Becke-Johnson damping scheme (D3BJ)
Cite in your paper:
S.Grimme, S.Ehrlich, L.Goerigk, J Comput Chem, (2011), 32, 1456–1465 
S.Grimme, J.Antony, S.Ehrlich and H.Krieg, J.Chem.Phys., 132, (2010), 154104 
   

----- Orbital basis set information -----
Your calculation utilizes the basis: aug-cc-pVTZ 
    H, B-Ne : Obtained from the ccRepo (grant-hill.group.shef.ac.uk/ccrepo) Feb. 2017
              R. A. Kendall, T. H. Dunning, Jr., R. J. Harrison, J. Chem. Phys. 96, 6796 (1992)
         He : Obtained from the ccRepo (grant-hill.group.shef.ac.uk/ccrepo) Feb. 2017
              D. E. Woon, T. H. Dunning, Jr., J. Chem. Phys. 100, 2975 (1994)
  Li-Be, Na : Obtained from the ccRepo (grant-hill.group.shef.ac.uk/ccrepo) Feb. 2017
              B. P. Prascher, D. E. Woon, K. A. Peterson, T. H. Dunning, Jr., A. K. Wilson, Theor. Chem. Acc. 128, 69 (2011)
         Mg : Obtained from the Peterson Research Group Website (tyr0.chem.wsu.edu/~kipeters) Feb. 2017
              B. P. Prascher, D. E. Woon, K. A. Peterson, T. H. Dunning, Jr., A. K. Wilson, Theor. Chem. Acc. 128, 69 (2011)
      Al-Ar : Obtained from the ccRepo (grant-hill.group.shef.ac.uk/ccrepo) Feb. 2017
              D. E. Woon, T. H. Dunning, Jr., J. Chem. Phys. 98, 1358 (1993)
      Sc-Zn : Obtained from the ccRepo (grant-hill.group.shef.ac.uk/ccrepo) Feb. 2017
              N. B. Balabanov, K. A. Peterson, J. Chem. Phys. 123, 064107 (2005)
              N. B. Balabanov, K. A. Peterson, J. Chem. Phys. 125, 074110 (2006)
      Ga-Kr : Obtained from the ccRepo (grant-hill.group.shef.ac.uk/ccrepo) Feb. 2017
              A. K. Wilson, D. E. Woon, K. A. Peterson, T. H. Dunning, Jr., J. Chem. Phys. 110, 7667 (1999)
     Ag, Au : Obtained from the Peterson Research Group Website (tyr0.chem.wsu.edu/~kipeters) Feb. 2017
              K. A. Peterson, C. Puzzarini, Theor. Chem. Acc. 114, 283 (2005)

----- AuxJ basis set information -----
Your calculation utilizes the auxiliary basis: def2/J
   F. Weigend, Phys. Chem. Chem. Phys. 8, 1057 (2006).

================================================================================
                                        WARNINGS
                       Please study these warnings very carefully!
================================================================================


WARNING: your system is open-shell and RHF/RKS was chosen
  ===> : WILL SWITCH to UHF/UKS


WARNING: The SCAN functional is very grid-sensitive!
         Use at least GRID5 and a higher intacc

INFO   : the flag for use of LIBINT has been found!

================================================================================
                                       INPUT FILE
================================================================================
NAME = 54_CuS.in
|  1> #
|  2> # 54_CuS scanfunc/aug-cc-pvtz
|  3> #
|  4> ! scanfunc d3bj aug-cc-pvtz def2/j grid4 nofinalgrid
|  5> 
|  6> *xyz 0 2
|  7>   Cu  0.00000000000000      0.00000000000000     -0.02892798555449
|  8>   S   0.00000000000000      0.00000000000000      2.02892798555449
|  9> *
| 10> 
| 11> %pal
| 12> nprocs 24
| 13> end
| 14> 
| 15> 
| 16>                          ****END OF INPUT****
================================================================================

                       ****************************
                       * Single Point Calculation *
                       ****************************

---------------------------------
CARTESIAN COORDINATES (ANGSTROEM)
---------------------------------
  Cu     0.000000    0.000000   -0.028928
  S      0.000000    0.000000    2.028928

----------------------------
CARTESIAN COORDINATES (A.U.)
----------------------------
  NO LB      ZA    FRAG     MASS         X           Y           Z
   0 Cu   29.0000    0    63.550    0.000000    0.000000   -0.054666
   1 S    16.0000    0    32.060    0.000000    0.000000    3.834118

--------------------------------
INTERNAL COORDINATES (ANGSTROEM)
--------------------------------
 Cu     0   0   0     0.000000000000     0.00000000     0.00000000
 S      1   0   0     2.057855971109     0.00000000     0.00000000

---------------------------
INTERNAL COORDINATES (A.U.)
---------------------------
 Cu     0   0   0     0.000000000000     0.00000000     0.00000000
 S      1   0   0     3.888784208451     0.00000000     0.00000000

---------------------
BASIS SET INFORMATION
---------------------
There are 2 groups of distinct atoms

 Group   1 Type Cu  : 116s77p23d3f2g contracted to 8s7p5d3f2g pattern {19191919191911/151515151511/77711/111/11}
 Group   2 Type S   : 42s17p3d2f contracted to 6s5p3d2f pattern {131313111/77111/111/11}

Atom   0Cu   basis set group =>   1
Atom   1S    basis set group =>   2
---------------------------------
AUXILIARY/J BASIS SET INFORMATION
---------------------------------
There are 2 groups of distinct atoms

 Group   1 Type Cu  : 19s5p5d3f3g contracted to 8s5p4d3f3g pattern {121111111/11111/2111/111/111}
 Group   2 Type S   : 14s5p5d2f1g contracted to 8s4p3d1f1g pattern {71111111/2111/311/2/1}

Atom   0Cu   basis set group =>   1
Atom   1S    basis set group =>   2


           ************************************************************
           *        Program running with 24 parallel MPI-processes    *
           *              working on a common directory               *
           ************************************************************
------------------------------------------------------------------------------
                           ORCA GTO INTEGRAL CALCULATION
                           -- RI-GTO INTEGRALS CHOSEN --
------------------------------------------------------------------------------

                         BASIS SET STATISTICS AND STARTUP INFO

Gaussian basis set:
 # of primitive gaussian shells          ...  285
 # of primitive gaussian functions       ...  623
 # of contracted shells                  ...   41
 # of contracted basis functions         ...  143
 Highest angular momentum                ...    4
 Maximum contraction depth               ...   19
Auxiliary gaussian basis set:
 # of primitive gaussian shells          ...   62
 # of primitive gaussian functions       ...  184
 # of contracted shells                  ...   40
 # of contracted aux-basis functions     ...  142
 Highest angular momentum                ...    4
 Maximum contraction depth               ...   12
Ratio of auxiliary to basis functions    ...  0.99
Integral package used                  ... LIBINT
 One Electron integrals                  ... done
 Ordering auxiliary basis shells         ... done
 Integral threshhold             Thresh  ...  1.000e-10
 Primitive cut-off               TCut    ...  1.000e-11
 Pre-screening matrix                    ... done
 Shell pair data                         ... 
 Ordering of the shell pairs             ... done (   0.000 sec) 861 of 861 pairs
 Determination of significant pairs      ... done (   0.000 sec)
 Creation of shell pair data             ... done (   0.001 sec)
 Storage of shell pair data              ... done (   0.023 sec)
 Shell pair data done in (   0.024 sec)
 Computing two index integrals           ... done
 Cholesky decomposition of the V-matrix  ... done


Timings:
 Total evaluation time                   ...   2.650 sec (  0.044 min)
 One electron matrix time                ...   0.050 sec (  0.001 min) =  1.9%
 Schwartz matrix evaluation time         ...   2.542 sec (  0.042 min) = 95.9%
 Two index repulsion integral time       ...   0.001 sec (  0.000 min) =  0.0%
 Cholesky decomposition of V             ...   0.001 sec (  0.000 min) =  0.0%
 Three index repulsion integral time     ...   0.000 sec (  0.000 min) =  0.0%



           ************************************************************
           *        Program running with 24 parallel MPI-processes    *
           *              working on a common directory               *
           ************************************************************
-------------------------------------------------------------------------------
                                 ORCA SCF
-------------------------------------------------------------------------------

------------
SCF SETTINGS
------------
Hamiltonian:
 Density Functional     Method          .... DFT(GTOs)
 Exchange Functional    Exchange        .... SCAN
 Correlation Functional Correlation     .... SCAN
 Gradients option       PostSCFGGA      .... off
   Density functional embedding theory  .... OFF
   NL short-range parameter             ....  6.400000
 RI-approximation to the Coulomb term is turned on
   Number of auxiliary basis functions  .... 142


General Settings:
 Integral files         IntName         .... 54_CuS
 Hartree-Fock type      HFTyp           .... UHF
 Total Charge           Charge          ....    0
 Multiplicity           Mult            ....    2
 Number of Electrons    NEL             ....   45
 Basis Dimension        Dim             ....  143
 Nuclear Repulsion      ENuc            ....    119.3174974820 Eh

Convergence Acceleration:
 DIIS                   CNVDIIS         .... on
   Start iteration      DIISMaxIt       ....    12
   Startup error        DIISStart       ....  0.200000
   # of expansion vecs  DIISMaxEq       ....     5
   Bias factor          DIISBfac        ....   1.050
   Max. coefficient     DIISMaxC        ....  10.000
 Newton-Raphson         CNVNR           .... off
 SOSCF                  CNVSOSCF        .... off
 Level Shifting         CNVShift        .... on
   Level shift para.    LevelShift      ....    0.2500
   Turn off err/grad.   ShiftErr        ....    0.0010
 Zerner damping         CNVZerner       .... off
 Static damping         CNVDamp         .... on
   Fraction old density DampFac         ....    0.7000
   Max. Damping (<1)    DampMax         ....    0.9800
   Min. Damping (>=0)   DampMin         ....    0.0000
   Turn off err/grad.   DampErr         ....    0.1000
 Fernandez-Rico         CNVRico         .... off

SCF Procedure:
 Maximum # iterations   MaxIter         ....   125
 SCF integral mode      SCFMode         .... Direct
   Integral package                     .... LIBINT
 Reset frequency        DirectResetFreq ....    20
 Integral Threshold     Thresh          ....  1.000e-10 Eh
 Primitive CutOff       TCut            ....  1.000e-11 Eh

Convergence Tolerance:
 Convergence Check Mode ConvCheckMode   .... Total+1el-Energy
 Convergence forced     ConvForced      .... 0
 Energy Change          TolE            ....  1.000e-06 Eh
 1-El. energy change                    ....  1.000e-03 Eh
 DIIS Error             TolErr          ....  1.000e-06


Diagonalization of the overlap matrix:
Smallest eigenvalue                        ... 1.697e-04
Time for diagonalization                   ...    0.005 sec
Threshold for overlap eigenvalues          ... 1.000e-08
Number of eigenvalues below threshold      ... 0
Time for construction of square roots      ...    0.002 sec
Total time needed                          ...    0.008 sec

-------------------
DFT GRID GENERATION
-------------------

General Integration Accuracy     IntAcc      ...  4.670
Radial Grid Type                 RadialGrid  ... Gauss-Chebyshev
Angular Grid (max. acc.)         AngularGrid ... Lebedev-302
Angular grid pruning method      GridPruning ... 3 (G Style)
Weight generation scheme         WeightScheme... Becke
Basis function cutoff            BFCut       ...    1.0000e-10
Integration weight cutoff        WCut        ...    1.0000e-14
Grids for H and He will be reduced by one unit

# of grid points (after initial pruning)     ...  16402 (   0.0 sec)
# of grid points (after weights+screening)   ...  16374 (   0.0 sec)
nearest neighbour list constructed           ...    0.0 sec
Grid point re-assignment to atoms done       ...    0.0 sec
Grid point division into batches done        ...    0.1 sec
Reduced shell lists constructed in    0.1 sec

Total number of grid points                  ...    16374
Total number of batches                      ...      257
Average number of points per batch           ...       63
Average number of grid points per atom       ...     8187
Average number of shells per batch           ...    15.00 (36.59%)
Average number of basis functions per batch  ...    36.17 (25.29%)
Average number of large shells per batch     ...     7.58 (50.56%)
Average number of large basis fcns per batch ...    18.42 (50.92%)
Maximum spatial batch extension              ...  23.02, 23.02, 16.62 au
Average spatial batch extension              ...   0.79,  0.78,  0.61 au

Time for grid setup =    0.193 sec

------------------------------
INITIAL GUESS: MODEL POTENTIAL
------------------------------
Loading Hartree-Fock densities                     ... done
Calculating cut-offs                               ... done
Setting up the integral package                    ... done
Initializing the effective Hamiltonian             ... done
Starting the Coulomb interaction                   ... done (   0.0 sec)
Reading the grid                                   ... done
Mapping shells                                     ... done
Starting the XC term evaluation                    ... done (   0.0 sec)
  promolecular density results
     # of electrons  =     45.000028287
     EX              =   -102.279654598
     EC              =     -0.798888354
     EX+EC           =   -103.078542952
Transforming the Hamiltonian                       ... done (   0.0 sec)
Diagonalizing the Hamiltonian                      ... done (   0.0 sec)
Back transforming the eigenvectors                 ... done (   0.0 sec)
Now organizing SCF variables                       ... done
                      ------------------
                      INITIAL GUESS DONE (   0.3 sec)
                      ------------------
--------------
SCF ITERATIONS
--------------
ITER       Energy         Delta-E        Max-DP      RMS-DP      [F,P]     Damp
               ***  Starting incremental Fock matrix formation  ***
  0  -2038.4081326167   0.000000000000 0.28975750  0.00456154  0.9074250 0.7000
  1  -2037.6335419590   0.774590657652 0.09250296  0.00208053  0.5244787 0.7000
  2  -2038.1932774400  -0.559735480990 0.06559447  0.00148725  0.2894217 0.7000
  3  -2038.2821469273  -0.088869487290 0.07139024  0.00143324  0.3443700 0.7000
                               ***Turning on DIIS***
  4  -2038.5153677279  -0.233220800636 0.03464563  0.00084342  0.1183373 0.7000
  5  -2038.6421154216  -0.126747693641 0.07071507  0.00197232  0.0687127 0.0000
  6  -2038.9159530816  -0.273837660032 0.00959452  0.00013328  0.1020849 0.7000
  7  -2038.9166333087  -0.000680227075 0.01245881  0.00016441  0.1209556 0.7000
  8  -2038.9156464514   0.000986857263 0.01215524  0.00015600  0.1428948 0.7000
  9  -2038.9130919547   0.002554496682 0.01079493  0.00015003  0.1624814 0.7000
 10  -2038.9106946083   0.002397346415 0.02072377  0.00044610  0.1755729 0.7000
 11  -2038.9219742180  -0.011279609668 0.04233564  0.00098418  0.0987903 0.0000
 12  -2038.9341481306  -0.012173912674 0.01301704  0.00027203  0.0976468 0.0000
 13  -2038.9410641548  -0.006916024142 0.00884896  0.00013426  0.0335817 0.0000
 14  -2038.9422443773  -0.001180222560 0.00391422  0.00005318  0.0094362 0.0000
 15  -2038.9423779178  -0.000133540408 0.00190579  0.00002737  0.0021221 0.0000
 16  -2038.9424026117  -0.000024693976 0.00098283  0.00001810  0.0010692 0.0000
 17  -2038.9424116554  -0.000009043699 0.00229244  0.00003417  0.0005061 0.0000
 18  -2038.9424155980  -0.000003942594 0.00013140  0.00000274  0.0017787 0.0000
 19  -2038.9424183881  -0.000002790057 0.00012677  0.00000215  0.0012636 0.0000
               *** Restarting incremental Fock matrix formation ***
                                   *** Resetting DIIS ***
 20  -2038.9424184568  -0.000000068724 0.00225978  0.00002541  0.0008513 0.0000
 21  -2038.9423942824   0.000024174405 0.00054328  0.00000765  0.0046806 0.0000
 22  -2038.9424129026  -0.000018620235 0.00043355  0.00000508  0.0018634 0.0000
 23  -2038.9424182455  -0.000005342861 0.00104461  0.00001143  0.0009446 0.0000
 24  -2038.9424212834  -0.000003037897 0.00039192  0.00000655  0.0004564 0.0000
 25  -2038.9424221718  -0.000000888450 0.00035254  0.00000519  0.0001969 0.0000
 26  -2038.9424222604  -0.000000088588 0.00031533  0.00000469  0.0001922 0.0000
                 **** Energy Check signals convergence ****

               *****************************************************
               *                     SUCCESS                       *
               *           SCF CONVERGED AFTER  27 CYCLES          *
               *****************************************************


----------------
TOTAL SCF ENERGY
----------------

Total Energy       :        -2038.94242278 Eh          -55482.44400 eV

Components:
Nuclear Repulsion  :          119.31749748 Eh            3246.79417 eV
Electronic Energy  :        -2158.25992026 Eh          -58729.23817 eV
One Electron Energy:        -3074.81694682 Eh          -83670.02282 eV
Two Electron Energy:          916.55702656 Eh           24940.78466 eV

Virial components:
Potential Energy   :        -4075.12037926 Eh         -110889.66304 eV
Kinetic Energy     :         2036.17795648 Eh           55407.21904 eV
Virial Ratio       :            2.00135767


DFT components:
N(Alpha)           :       23.000009293459 electrons
N(Beta)            :       22.000009482649 electrons
N(Total)           :       45.000018776107 electrons
E(X)               :      -91.051874706663 Eh       
E(C)               :       -1.981859222099 Eh       
E(XC)              :      -93.033733928762 Eh       
DFET-embed. en.    :        0.000000000000 Eh       

---------------
SCF CONVERGENCE
---------------

  Last Energy change         ...   -5.1570e-07  Tolerance :   1.0000e-06
  Last MAX-Density change    ...    4.3889e-04  Tolerance :   1.0000e-05
  Last RMS-Density change    ...    6.3431e-06  Tolerance :   1.0000e-06
  Last DIIS Error            ...    9.2469e-05  Tolerance :   1.0000e-06

             **** THE GBW FILE WAS UPDATED (54_CuS.gbw) ****
             **** DENSITY FILE WAS UPDATED (54_CuS.scfp) ****
             **** ENERGY FILE WAS UPDATED (54_CuS.en.tmp) ****
----------------------
UHF SPIN CONTAMINATION
----------------------

Warning: in a DFT calculation there is little theoretical justification to 
         calculate <S**2> as in Hartree-Fock theory. We will do it anyways
         but you should keep in mind that the values have only limited relevance

Expectation value of <S**2>     :     0.758729
Ideal value S*(S+1) for S=0.5   :     0.750000
Deviation                       :     0.008729

             **** THE GBW FILE WAS UPDATED (54_CuS.gbw) ****
             **** DENSITY FILE WAS UPDATED (54_CuS.scfp) ****
----------------
ORBITAL ENERGIES
----------------
                 SPIN UP ORBITALS
  NO   OCC          E(Eh)            E(eV) 
   0   1.0000    -322.542771     -8776.8350 
   1   1.0000     -88.658643     -2412.5243 
   2   1.0000     -38.599506     -1050.3460 
   3   1.0000     -33.820903      -920.3136 
   4   1.0000     -33.820596      -920.3052 
   5   1.0000     -33.818486      -920.2478 
   6   1.0000      -7.862923      -213.9610 
   7   1.0000      -5.808844      -158.0667 
   8   1.0000      -5.796769      -157.7381 
   9   1.0000      -5.793036      -157.6365 
  10   1.0000      -4.324482      -117.6751 
  11   1.0000      -2.812569       -76.5339 
  12   1.0000      -2.800700       -76.2109 
  13   1.0000      -2.787190       -75.8433 
  14   1.0000      -0.634686       -17.2707 
  15   1.0000      -0.316655        -8.6166 
  16   1.0000      -0.314854        -8.5676 
  17   1.0000      -0.293194        -7.9782 
  18   1.0000      -0.267852        -7.2886 
  19   1.0000      -0.267440        -7.2774 
  20   1.0000      -0.242678        -6.6036 
  21   1.0000      -0.241763        -6.5787 
  22   1.0000      -0.209004        -5.6873 
  23   0.0000      -0.131163        -3.5691 
  24   0.0000      -0.017231        -0.4689 
  25   0.0000      -0.011313        -0.3078 
  26   0.0000       0.015471         0.4210 
  27   0.0000       0.019680         0.5355 
  28   0.0000       0.038464         1.0467 
  29   0.0000       0.040804         1.1103 
  30   0.0000       0.077055         2.0968 
  31   0.0000       0.093814         2.5528 
  32   0.0000       0.095003         2.5852 
  33   0.0000       0.099020         2.6945 
  34   0.0000       0.123317         3.3556 
  35   0.0000       0.125219         3.4074 
  36   0.0000       0.129327         3.5192 
  37   0.0000       0.165260         4.4970 
  38   0.0000       0.171746         4.6735 
  39   0.0000       0.174929         4.7601 
  40   0.0000       0.208852         5.6832 
  41   0.0000       0.213239         5.8025 
  42   0.0000       0.221903         6.0383 
  43   0.0000       0.223791         6.0897 
  44   0.0000       0.227916         6.2019 
  45   0.0000       0.297615         8.0985 
  46   0.0000       0.305526         8.3138 
  47   0.0000       0.318109         8.6562 
  48   0.0000       0.354838         9.6556 
  49   0.0000       0.493901        13.4397 
  50   0.0000       0.513064        13.9612 
  51   0.0000       0.533846        14.5267 
  52   0.0000       0.535528        14.5725 
  53   0.0000       0.556215        15.1354 
  54   0.0000       0.559321        15.2199 
  55   0.0000       0.570383        15.5209 
  56   0.0000       0.612152        16.6575 
  57   0.0000       0.613769        16.7015 
  58   0.0000       0.655759        17.8441 
  59   0.0000       0.675246        18.3744 
  60   0.0000       0.713035        19.4027 
  61   0.0000       0.726775        19.7765 
  62   0.0000       0.738831        20.1046 
  63   0.0000       0.738974        20.1085 
  64   0.0000       0.757982        20.6257 
  65   0.0000       0.789754        21.4903 
  66   0.0000       0.792243        21.5580 
  67   0.0000       0.918460        24.9926 
  68   0.0000       0.928063        25.2539 
  69   0.0000       0.942423        25.6446 
  70   0.0000       1.026877        27.9427 
  71   0.0000       1.041412        28.3383 
  72   0.0000       1.162401        31.6305 
  73   0.0000       1.434362        39.0310 
  74   0.0000       1.438600        39.1463 
  75   0.0000       1.438628        39.1470 
  76   0.0000       1.558302        42.4035 
  77   0.0000       1.558323        42.4041 
  78   0.0000       1.710792        46.5530 
  79   0.0000       1.726770        46.9878 
  80   0.0000       1.809392        49.2361 
  81   0.0000       1.811186        49.2849 
  82   0.0000       1.927083        52.4386 
  83   0.0000       1.947315        52.9891 
  84   0.0000       1.955530        53.2127 
  85   0.0000       2.027590        55.1735 
  86   0.0000       2.068030        56.2740 
  87   0.0000       2.084855        56.7318 
  88   0.0000       2.108307        57.3699 
  89   0.0000       2.109109        57.3918 
  90   0.0000       2.129763        57.9538 
  91   0.0000       2.130947        57.9860 
  92   0.0000       2.165035        58.9136 
  93   0.0000       2.165890        58.9369 
  94   0.0000       2.173788        59.1518 
  95   0.0000       2.204402        59.9848 
  96   0.0000       2.211190        60.1695 
  97   0.0000       2.295175        62.4549 
  98   0.0000       2.422563        65.9213 
  99   0.0000       2.451004        66.6952 
 100   0.0000       3.088383        84.0392 
 101   0.0000       3.883301       105.6700 
 102   0.0000       4.258852       115.8893 
 103   0.0000       4.268507       116.1520 
 104   0.0000       4.363701       118.7424 
 105   0.0000       4.363706       118.7425 
 106   0.0000       4.414652       120.1288 
 107   0.0000       4.414945       120.1368 
 108   0.0000       4.589264       124.8802 
 109   0.0000       4.591685       124.9461 
 110   0.0000       4.599883       125.1692 
 111   0.0000       4.921940       133.9328 
 112   0.0000       5.027706       136.8108 
 113   0.0000       6.086325       165.6173 
 114   0.0000       6.086334       165.6176 
 115   0.0000       6.088571       165.6784 
 116   0.0000       6.088596       165.6791 
 117   0.0000       6.094847       165.8492 
 118   0.0000       6.094933       165.8516 
 119   0.0000       6.155432       167.4978 
 120   0.0000       6.163084       167.7061 
 121   0.0000       6.299077       171.4066 
 122   0.0000       7.922485       215.5818 
 123   0.0000       7.922611       215.5852 
 124   0.0000       7.961024       216.6305 
 125   0.0000       7.975140       217.0146 
 126   0.0000       8.465666       230.3625 
 127   0.0000      14.086927       383.3248 
 128   0.0000      14.086927       383.3248 
 129   0.0000      14.102817       383.7572 
 130   0.0000      14.103652       383.7799 
 131   0.0000      14.196480       386.3058 
 132   0.0000      14.211519       386.7151 
 133   0.0000      14.258264       387.9871 
 134   0.0000      16.699380       454.4132 
 135   0.0000      16.699419       454.4143 
 136   0.0000      16.700091       454.4326 
 137   0.0000      16.701581       454.4731 
 138   0.0000      16.707242       454.6272 
 139   0.0000      16.707335       454.6297 
 140   0.0000      16.727742       455.1850 
 141   0.0000      16.740616       455.5353 
 142   0.0000      16.786289       456.7781 

                 SPIN DOWN ORBITALS
  NO   OCC          E(Eh)            E(eV) 
   0   1.0000    -322.542265     -8776.8212 
   1   1.0000     -88.652801     -2412.3654 
   2   1.0000     -38.593208     -1050.1746 
   3   1.0000     -33.817135      -920.2110 
   4   1.0000     -33.815240      -920.1595 
   5   1.0000     -33.815238      -920.1594 
   6   1.0000      -7.851442      -213.6486 
   7   1.0000      -5.792866      -157.6319 
   8   1.0000      -5.789901      -157.5512 
   9   1.0000      -5.786097      -157.4477 
  10   1.0000      -4.311508      -117.3221 
  11   1.0000      -2.794010       -76.0289 
  12   1.0000      -2.785446       -75.7958 
  13   1.0000      -2.785211       -75.7894 
  14   1.0000      -0.600334       -16.3359 
  15   1.0000      -0.318309        -8.6616 
  16   1.0000      -0.289618        -7.8809 
  17   1.0000      -0.266216        -7.2441 
  18   1.0000      -0.266071        -7.2402 
  19   1.0000      -0.265951        -7.2369 
  20   1.0000      -0.240404        -6.5417 
  21   1.0000      -0.199284        -5.4228 
  22   0.0000      -0.172750        -4.7008 
  23   0.0000      -0.126337        -3.4378 
  24   0.0000      -0.011709        -0.3186 
  25   0.0000      -0.009068        -0.2468 
  26   0.0000       0.016379         0.4457 
  27   0.0000       0.022994         0.6257 
  28   0.0000       0.040977         1.1150 
  29   0.0000       0.041230         1.1219 
  30   0.0000       0.081402         2.2151 
  31   0.0000       0.096048         2.6136 
  32   0.0000       0.099020         2.6945 
  33   0.0000       0.108882         2.9628 
  34   0.0000       0.129806         3.5322 
  35   0.0000       0.130869         3.5611 
  36   0.0000       0.133223         3.6252 
  37   0.0000       0.171347         4.6626 
  38   0.0000       0.174176         4.7396 
  39   0.0000       0.181375         4.9355 
  40   0.0000       0.210230         5.7207 
  41   0.0000       0.218811         5.9542 
  42   0.0000       0.230339         6.2678 
  43   0.0000       0.239722         6.5232 
  44   0.0000       0.243157         6.6166 
  45   0.0000       0.303072         8.2470 
  46   0.0000       0.323803         8.8111 
  47   0.0000       0.325960         8.8698 
  48   0.0000       0.360454         9.8085 
  49   0.0000       0.509817        13.8728 
  50   0.0000       0.515352        14.0234 
  51   0.0000       0.542313        14.7571 
  52   0.0000       0.543129        14.7793 
  53   0.0000       0.565568        15.3899 
  54   0.0000       0.570253        15.5174 
  55   0.0000       0.581473        15.8227 
  56   0.0000       0.632133        17.2012 
  57   0.0000       0.643897        17.5213 
  58   0.0000       0.667927        18.1752 
  59   0.0000       0.681162        18.5354 
  60   0.0000       0.728126        19.8133 
  61   0.0000       0.733796        19.9676 
  62   0.0000       0.749062        20.3830 
  63   0.0000       0.752058        20.4645 
  64   0.0000       0.763437        20.7742 
  65   0.0000       0.798152        21.7188 
  66   0.0000       0.800122        21.7724 
  67   0.0000       0.920918        25.0594 
  68   0.0000       0.933496        25.4017 
  69   0.0000       0.946494        25.7554 
  70   0.0000       1.036629        28.2081 
  71   0.0000       1.044974        28.4352 
  72   0.0000       1.167322        31.7645 
  73   0.0000       1.441535        39.2262 
  74   0.0000       1.441599        39.2279 
  75   0.0000       1.446013        39.3480 
  76   0.0000       1.560183        42.4547 
  77   0.0000       1.560437        42.4617 
  78   0.0000       1.718839        46.7720 
  79   0.0000       1.726651        46.9846 
  80   0.0000       1.819231        49.5038 
  81   0.0000       1.825593        49.6769 
  82   0.0000       1.943475        52.8846 
  83   0.0000       1.956150        53.2296 
  84   0.0000       1.959900        53.3316 
  85   0.0000       2.025721        55.1227 
  86   0.0000       2.081094        56.6295 
  87   0.0000       2.087266        56.7974 
  88   0.0000       2.112830        57.4930 
  89   0.0000       2.114250        57.5317 
  90   0.0000       2.143475        58.3269 
  91   0.0000       2.148661        58.4680 
  92   0.0000       2.174515        59.1716 
  93   0.0000       2.176024        59.2126 
  94   0.0000       2.181175        59.3528 
  95   0.0000       2.197291        59.7913 
  96   0.0000       2.215616        60.2900 
  97   0.0000       2.286474        62.2181 
  98   0.0000       2.432818        66.2003 
  99   0.0000       2.441640        66.4404 
 100   0.0000       3.082868        83.8891 
 101   0.0000       3.886659       105.7614 
 102   0.0000       4.263911       116.0269 
 103   0.0000       4.271867       116.2434 
 104   0.0000       4.366280       118.8125 
 105   0.0000       4.366368       118.8149 
 106   0.0000       4.423747       120.3763 
 107   0.0000       4.424060       120.3848 
 108   0.0000       4.594451       125.0214 
 109   0.0000       4.598169       125.1225 
 110   0.0000       4.603833       125.2767 
 111   0.0000       4.920363       133.8899 
 112   0.0000       5.028976       136.8454 
 113   0.0000       6.091727       165.7643 
 114   0.0000       6.091892       165.7688 
 115   0.0000       6.092767       165.7926 
 116   0.0000       6.093498       165.8125 
 117   0.0000       6.099413       165.9735 
 118   0.0000       6.099473       165.9751 
 119   0.0000       6.161560       167.6646 
 120   0.0000       6.167636       167.8299 
 121   0.0000       6.306656       171.6128 
 122   0.0000       7.925336       215.6594 
 123   0.0000       7.926022       215.6780 
 124   0.0000       7.978816       217.1146 
 125   0.0000       7.988827       217.3870 
 126   0.0000       8.463719       230.3095 
 127   0.0000      14.086647       383.3171 
 128   0.0000      14.087182       383.3317 
 129   0.0000      14.121825       384.2744 
 130   0.0000      14.122465       384.2918 
 131   0.0000      14.210902       386.6983 
 132   0.0000      14.210992       386.7007 
 133   0.0000      14.257755       387.9732 
 134   0.0000      16.708685       454.6664 
 135   0.0000      16.709387       454.6855 
 136   0.0000      16.709443       454.6871 
 137   0.0000      16.710446       454.7144 
 138   0.0000      16.713855       454.8071 
 139   0.0000      16.714385       454.8215 
 140   0.0000      16.736837       455.4325 
 141   0.0000      16.743986       455.6270 
 142   0.0000      16.792315       456.9421 

                    ********************************
                    * MULLIKEN POPULATION ANALYSIS *
                    ********************************

--------------------------------------------
MULLIKEN ATOMIC CHARGES AND SPIN POPULATIONS
--------------------------------------------
   0 Cu:    0.374872    0.127984
   1 S :   -0.374872    0.872016
Sum of atomic charges         :   -0.0000000
Sum of atomic spin populations:    1.0000000

-----------------------------------------------------
MULLIKEN REDUCED ORBITAL CHARGES AND SPIN POPULATIONS
-----------------------------------------------------
CHARGE
  0 Cus       :     6.698333  s :     6.698333
      pz      :     4.065945  p :    12.205611
      px      :     4.063389
      py      :     4.076276
      dz2     :     1.890069  d :     9.715330
      dxz     :     1.899657
      dyz     :     1.929996
      dx2y2   :     1.998204
      dxy     :     1.997403
      f0      :     0.001954  f :     0.005761
      f+1     :     0.001741
      f-1     :     0.001961
      f+2     :     0.000044
      f-2     :     0.000057
      f+3     :     0.000003
      f-3     :     0.000002
      g0      :     0.000043  g :     0.000094
      g+1     :     0.000022
      g-1     :     0.000022
      g+2     :     0.000002
      g-2     :     0.000003
      g+3     :     0.000001
      g-3     :     0.000001
      g+4     :     0.000001
      g-4     :     0.000001
  1 S s       :     5.968386  s :     5.968386
      pz      :     3.365866  p :    10.363054
      px      :     3.417539
      py      :     3.579649
      dz2     :     0.008747  d :     0.037515
      dxz     :     0.012832
      dyz     :     0.012767
      dx2y2   :     0.001183
      dxy     :     0.001986
      f0      :     0.000566  f :     0.005917
      f+1     :     0.001905
      f-1     :     0.001763
      f+2     :     0.000568
      f-2     :     0.000641
      f+3     :     0.000233
      f-3     :     0.000242

SPIN
  0 Cus       :    -0.015111  s :    -0.015111
      pz      :    -0.007621  p :     0.008589
      px      :     0.011815
      py      :     0.004394
      dz2     :    -0.010224  d :     0.133563
      dxz     :     0.086316
      dyz     :     0.056621
      dx2y2   :     0.000047
      dxy     :     0.000805
      f0      :     0.000101  f :     0.000938
      f+1     :     0.000502
      f-1     :     0.000318
      f+2     :     0.000015
      f-2     :     0.000004
      f+3     :    -0.000001
      f-3     :    -0.000000
      g0      :     0.000002  g :     0.000005
      g+1     :     0.000000
      g-1     :    -0.000000
      g+2     :     0.000001
      g-2     :     0.000001
      g+3     :     0.000000
      g-3     :     0.000000
      g+4     :     0.000000
      g-4     :     0.000000
  1 S s       :     0.010247  s :     0.010247
      pz      :     0.022617  p :     0.863494
      px      :     0.504491
      py      :     0.336386
      dz2     :    -0.001048  d :    -0.000835
      dxz     :    -0.000073
      dyz     :    -0.000164
      dx2y2   :     0.000048
      dxy     :     0.000401
      f0      :    -0.000300  f :    -0.000889
      f+1     :    -0.000582
      f-1     :    -0.000441
      f+2     :    -0.000050
      f-2     :     0.000068
      f+3     :     0.000209
      f-3     :     0.000208


                     *******************************
                     * LOEWDIN POPULATION ANALYSIS *
                     *******************************

-------------------------------------------
LOEWDIN ATOMIC CHARGES AND SPIN POPULATIONS
-------------------------------------------
   0 Cu:   -0.034742    0.232798
   1 S :    0.034742    0.767202

----------------------------------------------------
LOEWDIN REDUCED ORBITAL CHARGES AND SPIN POPULATIONS
----------------------------------------------------
CHARGE
  0 Cus       :     6.576188  s :     6.576188
      pz      :     4.236679  p :    12.460170
      px      :     4.100416
      py      :     4.123075
      dz2     :     2.035327  d :     9.959280
      dxz     :     1.951536
      dyz     :     1.989889
      dx2y2   :     1.991693
      dxy     :     1.990835
      f0      :     0.018184  f :     0.038795
      f+1     :     0.009613
      f-1     :     0.010760
      f+2     :     0.000107
      f-2     :     0.000126
      f+3     :     0.000003
      f-3     :     0.000002
      g0      :     0.000168  g :     0.000309
      g+1     :     0.000065
      g-1     :     0.000071
      g+2     :     0.000001
      g-2     :     0.000002
      g+3     :     0.000001
      g-3     :     0.000001
      g+4     :     0.000001
      g-4     :     0.000001
  1 S s       :     5.543295  s :     5.543295
      pz      :     3.419437  p :    10.116907
      px      :     3.276972
      py      :     3.420498
      dz2     :     0.104694  d :     0.170728
      dxz     :     0.029677
      dyz     :     0.029453
      dx2y2   :     0.003040
      dxy     :     0.003864
      f0      :     0.065936  f :     0.134328
      f+1     :     0.028804
      f-1     :     0.028690
      f+2     :     0.005160
      f-2     :     0.005264
      f+3     :     0.000233
      f-3     :     0.000242

SPIN
  0 Cus       :    -0.011470  s :    -0.011470
      pz      :    -0.002011  p :     0.056331
      px      :     0.037464
      py      :     0.020878
      dz2     :    -0.007591  d :     0.181145
      dxz     :     0.113276
      dyz     :     0.074584
      dx2y2   :     0.000026
      dxy     :     0.000850
      f0      :     0.000521  f :     0.006752
      f+1     :     0.003703
      f-1     :     0.002486
      f+2     :     0.000027
      f-2     :     0.000014
      f+3     :    -0.000001
      f-3     :    -0.000000
      g0      :     0.000004  g :     0.000040
      g+1     :     0.000020
      g-1     :     0.000013
      g+2     :     0.000001
      g-2     :     0.000001
      g+3     :     0.000000
      g-3     :     0.000000
      g+4     :     0.000000
      g-4     :     0.000000
  1 S s       :     0.003414  s :     0.003414
      pz      :     0.016818  p :     0.765732
      px      :     0.449009
      py      :     0.299905
      dz2     :    -0.000709  d :    -0.001587
      dxz     :    -0.000747
      dyz     :    -0.000567
      dx2y2   :     0.000057
      dxy     :     0.000379
      f0      :    -0.000315  f :    -0.000357
      f+1     :    -0.000257
      f-1     :    -0.000186
      f+2     :    -0.000050
      f-2     :     0.000033
      f+3     :     0.000209
      f-3     :     0.000208


                      *****************************
                      * MAYER POPULATION ANALYSIS *
                      *****************************

  NA   - Mulliken gross atomic population
  ZA   - Total nuclear charge
  QA   - Mulliken gross atomic charge
  VA   - Mayer's total valence
  BVA  - Mayer's bonded valence
  FA   - Mayer's free valence

  ATOM       NA         ZA         QA         VA         BVA        FA
  0 Cu    28.6251    29.0000     0.3749     1.5932     1.5333     0.0600
  1 S     16.3749    16.0000    -0.3749     2.2298     1.5333     0.6965

  Mayer bond orders larger than 0.100000
B(  0-Cu,  1-S ) :   1.5333 

-------
TIMINGS
-------

Total SCF time: 0 days 0 hours 0 min 5 sec 

Total time                  ....       5.333 sec
Sum of individual times     ....       5.152 sec  ( 96.6%)

Fock matrix formation       ....       4.598 sec  ( 86.2%)
  Split-RI-J                ....       3.478 sec  ( 75.6% of F)
  XC integration            ....       0.998 sec  ( 21.7% of F)
    Basis function eval.    ....       0.136 sec  ( 13.6% of XC)
    Density eval.           ....       0.146 sec  ( 14.6% of XC)
    XC-Functional eval.     ....       0.028 sec  (  2.9% of XC)
    XC-Potential eval.      ....       0.422 sec  ( 42.3% of XC)
Diagonalization             ....       0.142 sec  (  2.7%)
Density matrix formation    ....       0.018 sec  (  0.3%)
Population analysis         ....       0.007 sec  (  0.1%)
Initial guess               ....       0.147 sec  (  2.7%)
Orbital Transformation      ....       0.000 sec  (  0.0%)
Orbital Orthonormalization  ....       0.000 sec  (  0.0%)
DIIS solution               ....       0.049 sec  (  0.9%)
Grid generation             ....       0.193 sec  (  3.6%)


-------------------------------------------------------------------------------
                          DFT DISPERSION CORRECTION                            
                                                                               
                              DFTD3 V3.1  Rev 1                                
                          USING Becke-Johnson damping                          
-------------------------------------------------------------------------------
The SCAN functional is recognized
Active option DFTDOPT                   ...         4   

molecular C6(AA) [au] = 606.090819 


            DFT-D V3
 parameters
 s6 scaling factor         :     1.0000 
 a1 scaling factor         :     0.5380 
 s8 scaling factor         :     0.0000 
 a2 scaling factor         :     5.4200 
 ad hoc parameters k1-k3   :    16.0000     1.3333    -4.0000 

 Edisp/kcal,au: -0.111523921490  -0.000177724663 
 E6   /kcal   :  -0.111523921 
 E8   /kcal   :  -0.000000000 
 % E8         :   0.000000000 

-------------------------   ----------------
Dispersion correction           -0.000177725
-------------------------   ----------------


-------------------------   --------------------
FINAL SINGLE POINT ENERGY     -2038.942600500797
-------------------------   --------------------


                            ***************************************
                            *     ORCA property calculations      *
                            ***************************************

                                    ---------------------
                                    Active property flags
                                    ---------------------
   (+) Dipole Moment


------------------------------------------------------------------------------
                       ORCA ELECTRIC PROPERTIES CALCULATION
------------------------------------------------------------------------------

Dipole Moment Calculation                       ... on
Quadrupole Moment Calculation                   ... off
Polarizability Calculation                      ... off
GBWName                                         ... 54_CuS.gbw
Electron density file                           ... 54_CuS.scfp
The origin for moment calculation is the CENTER OF MASS  = ( 0.000000,  0.000000  1.249323)

-------------
DIPOLE MOMENT
-------------
                                X             Y             Z
Electronic contribution:      0.00000      -0.00000      -5.18953
Nuclear contribution   :      0.00000       0.00000       3.54103
                        -----------------------------------------
Total Dipole Moment    :      0.00000      -0.00000      -1.64851
                        -----------------------------------------
Magnitude (a.u.)       :      1.64851
Magnitude (Debye)      :      4.19017



--------------------
Rotational spectrum 
--------------------
 
Rotational constants in cm-1:     0.000000     0.186806     0.186806 
Rotational constants in MHz :     0.000000  5600.307820  5600.307820 

 Dipole components along the rotational axes: 
x,y,z [a.u.] :    -1.648507    -0.000000     0.000000 
x,y,z [Debye]:    -4.190171    -0.000000     0.000000 

 

Timings for individual modules:

Sum of individual times         ...        8.825 sec (=   0.147 min)
GTO integral calculation        ...        3.166 sec (=   0.053 min)  35.9 %
SCF iterations                  ...        5.658 sec (=   0.094 min)  64.1 %
                             ****ORCA TERMINATED NORMALLY****
TOTAL RUN TIME: 0 days 0 hours 0 minutes 9 seconds 392 msec
