
                                 *****************
                                 * O   R   C   A *
                                 *****************

           --- An Ab Initio, DFT and Semiempirical electronic structure package ---

                  #######################################################
                  #                        -***-                        #
                  #          Department of theory and spectroscopy      #
                  #               Directorship: Frank Neese             #
                  #        Max Planck Institute fuer Kohlenforschung    #
                  #                Kaiser Wilhelm Platz 1               #
                  #                 D-45470 Muelheim/Ruhr               #
                  #                      Germany                        #
                  #                                                     #
                  #                  All rights reserved                #
                  #                        -***-                        #
                  #######################################################


                         Program Version 4.2.0 -  RELEASE  -


 With contributions from (in alphabetic order):
   Daniel Aravena         : Magnetic Suceptibility
   Michael Atanasov       : Ab Initio Ligand Field Theory (pilot matlab implementation)
   Alexander A. Auer      : GIAO ZORA, VPT2
   Ute Becker             : Parallelization
   Giovanni Bistoni       : ED, misc. LED, open-shell LED, HFLED
   Martin Brehm           : Molecular dynamics
   Dmytro Bykov           : SCF Hessian
   Vijay G. Chilkuri      : MRCI spin determinant printing, contributions to CSF-ICE
   Dipayan Datta          : RHF DLPNO-CCSD density
   Achintya Kumar Dutta   : EOM-CC, STEOM-CC
   Dmitry Ganyushin       : Spin-Orbit,Spin-Spin,Magnetic field MRCI
   Miquel Garcia          : C-PCM Hessian, Gaussian charge scheme
   Yang Guo               : DLPNO-NEVPT2, CIM, IAO-localization
   Andreas Hansen         : Spin unrestricted coupled pair/coupled cluster methods
   Benjamin Helmich-Paris : CASSCF linear response (MC-RPA)
   Lee Huntington         : MR-EOM, pCC
   Robert Izsak           : Overlap fitted RIJCOSX, COSX-SCS-MP3, EOM
   Christian Kollmar      : KDIIS, OOCD, Brueckner-CCSD(T), CCSD density
   Simone Kossmann        : Meta GGA functionals, TD-DFT gradient, OOMP2, MP2 Hessian
   Martin Krupicka        : AUTO-CI
   Lucas Lang             : DCDCAS
   Dagmar Lenk            : GEPOL surface, SMD
   Dimitrios Liakos       : Extrapolation schemes; Compound Job, initial MDCI parallelization
   Dimitrios Manganas     : Further ROCIS development; embedding schemes
   Dimitrios Pantazis     : SARC Basis sets
   Taras Petrenko         : DFT Hessian,TD-DFT gradient, ASA, ECA, R-Raman, ABS, FL, XAS/XES, NRVS
   Peter Pinski           : DLPNO-MP2, DLPNO-MP2 Gradient
   Christoph Reimann      : Effective Core Potentials
   Marius Retegan         : Local ZFS, SOC
   Christoph Riplinger    : Optimizer, TS searches, QM/MM, DLPNO-CCSD(T), (RO)-DLPNO pert. Triples
   Tobias Risthaus        : Range-separated hybrids, TD-DFT gradient, RPA, STAB
   Michael Roemelt        : Original ROCIS implementation
   Masaaki Saitow         : Open-shell DLPNO-CCSD energy and density
   Barbara Sandhoefer     : DKH picture change effects
   Avijit Sen             : IP-ROCIS
   Kantharuban Sivalingam : CASSCF convergence, NEVPT2, FIC-MRCI
   Bernardo de Souza      : ESD, SOC TD-DFT
   Georgi Stoychev        : AutoAux, RI-MP2 NMR
   Willem Van den Heuvel  : Paramagnetic NMR
   Boris Wezisla          : Elementary symmetry handling
   Frank Wennmohs         : Technical directorship


 We gratefully acknowledge several colleagues who have allowed us to
 interface, adapt or use parts of their codes:
   Stefan Grimme, W. Hujo, H. Kruse,             : VdW corrections, initial TS optimization,
                  C. Bannwarth                     DFT functionals, gCP, sTDA/sTD-DF
   Ed Valeev, F. Pavosevic, A. Kumar             : LibInt (2-el integral package), F12 methods
   Garnet Chan, S. Sharma, J. Yang, R. Olivares  : DMRG
   Ulf Ekstrom                                   : XCFun DFT Library
   Mihaly Kallay                                 : mrcc  (arbitrary order and MRCC methods)
   Andreas Klamt, Michael Diedenhofen            : otool_cosmo (COSMO solvation model)
   Jiri Pittner, Ondrej Demel                    : Mk-CCSD
   Frank Weinhold                                : gennbo (NPA and NBO analysis)
   Christopher J. Cramer and Donald G. Truhlar   : smd solvation model
   Lars Goerigk                                  : TD-DFT with DH, B97 family of functionals
   V. Asgeirsson, H. Jonsson                     : NEB implementation
   FAccTs GmbH                                   : IRC, NEB, NEB-TS, Multilevel, MM, QM/MM, CI optimization
   S Lehtola, MJT Oliveira, MAL Marques          : LibXC Library


 Your calculation uses the libint2 library for the computation of 2-el integrals
 For citations please refer to: http://libint.valeyev.net

 Your ORCA version has been built with support for libXC version: 4.2.3
 For citations please refer to: https://tddft.org/programs/libxc/

 This ORCA versions uses:
   CBLAS   interface :  Fast vector & matrix operations
   LAPACKE interface :  Fast linear algebra routines
   SCALAPACK package :  Parallel linear algebra routines


Your calculation utilizes the atom-pairwise dispersion correction
with the Becke-Johnson damping scheme (D3BJ)
Cite in your paper:
S.Grimme, S.Ehrlich, L.Goerigk, J Comput Chem, (2011), 32, 1456–1465 
S.Grimme, J.Antony, S.Ehrlich and H.Krieg, J.Chem.Phys., 132, (2010), 154104 
   

----- Orbital basis set information -----
Your calculation utilizes the basis: aug-cc-pVTZ 
    H, B-Ne : Obtained from the ccRepo (grant-hill.group.shef.ac.uk/ccrepo) Feb. 2017
              R. A. Kendall, T. H. Dunning, Jr., R. J. Harrison, J. Chem. Phys. 96, 6796 (1992)
         He : Obtained from the ccRepo (grant-hill.group.shef.ac.uk/ccrepo) Feb. 2017
              D. E. Woon, T. H. Dunning, Jr., J. Chem. Phys. 100, 2975 (1994)
  Li-Be, Na : Obtained from the ccRepo (grant-hill.group.shef.ac.uk/ccrepo) Feb. 2017
              B. P. Prascher, D. E. Woon, K. A. Peterson, T. H. Dunning, Jr., A. K. Wilson, Theor. Chem. Acc. 128, 69 (2011)
         Mg : Obtained from the Peterson Research Group Website (tyr0.chem.wsu.edu/~kipeters) Feb. 2017
              B. P. Prascher, D. E. Woon, K. A. Peterson, T. H. Dunning, Jr., A. K. Wilson, Theor. Chem. Acc. 128, 69 (2011)
      Al-Ar : Obtained from the ccRepo (grant-hill.group.shef.ac.uk/ccrepo) Feb. 2017
              D. E. Woon, T. H. Dunning, Jr., J. Chem. Phys. 98, 1358 (1993)
      Sc-Zn : Obtained from the ccRepo (grant-hill.group.shef.ac.uk/ccrepo) Feb. 2017
              N. B. Balabanov, K. A. Peterson, J. Chem. Phys. 123, 064107 (2005)
              N. B. Balabanov, K. A. Peterson, J. Chem. Phys. 125, 074110 (2006)
      Ga-Kr : Obtained from the ccRepo (grant-hill.group.shef.ac.uk/ccrepo) Feb. 2017
              A. K. Wilson, D. E. Woon, K. A. Peterson, T. H. Dunning, Jr., J. Chem. Phys. 110, 7667 (1999)
     Ag, Au : Obtained from the Peterson Research Group Website (tyr0.chem.wsu.edu/~kipeters) Feb. 2017
              K. A. Peterson, C. Puzzarini, Theor. Chem. Acc. 114, 283 (2005)

----- AuxJ basis set information -----
Your calculation utilizes the auxiliary basis: def2/J
   F. Weigend, Phys. Chem. Chem. Phys. 8, 1057 (2006).

================================================================================
                                        WARNINGS
                       Please study these warnings very carefully!
================================================================================


WARNING: your system is open-shell and RHF/RKS was chosen
  ===> : WILL SWITCH to UHF/UKS


WARNING: The SCAN functional is very grid-sensitive!
         Use at least GRID5 and a higher intacc

INFO   : the flag for use of LIBINT has been found!

================================================================================
                                       INPUT FILE
================================================================================
NAME = 55_ZnH.in
|  1> #
|  2> # 55_ZnH scanfunc/aug-cc-pvtz
|  3> #
|  4> ! scanfunc d3bj aug-cc-pvtz def2/j grid4 nofinalgrid
|  5> 
|  6> *xyz 0 2
|  7>   Zn  0.00000000000000      0.00000000000000      0.19402109306576
|  8>   H   0.00000000000000      0.00000000000000      1.80597890693424
|  9> *
| 10> 
| 11> %pal
| 12> nprocs 24
| 13> end
| 14> 
| 15> 
| 16>                          ****END OF INPUT****
================================================================================

                       ****************************
                       * Single Point Calculation *
                       ****************************

---------------------------------
CARTESIAN COORDINATES (ANGSTROEM)
---------------------------------
  Zn     0.000000    0.000000    0.194021
  H      0.000000    0.000000    1.805979

----------------------------
CARTESIAN COORDINATES (A.U.)
----------------------------
  NO LB      ZA    FRAG     MASS         X           Y           Z
   0 Zn   30.0000    0    65.380    0.000000    0.000000    0.366647
   1 H     1.0000    0     1.008    0.000000    0.000000    3.412806

--------------------------------
INTERNAL COORDINATES (ANGSTROEM)
--------------------------------
 Zn     0   0   0     0.000000000000     0.00000000     0.00000000
 H      1   0   0     1.611957813868     0.00000000     0.00000000

---------------------------
INTERNAL COORDINATES (A.U.)
---------------------------
 Zn     0   0   0     0.000000000000     0.00000000     0.00000000
 H      1   0   0     3.046158807646     0.00000000     0.00000000

---------------------
BASIS SET INFORMATION
---------------------
There are 2 groups of distinct atoms

 Group   1 Type Zn  : 116s77p23d3f2g contracted to 8s7p5d3f2g pattern {19191919191911/151515151511/77711/111/11}
 Group   2 Type H   : 6s3p2d contracted to 4s3p2d pattern {3111/111/11}

Atom   0Zn   basis set group =>   1
Atom   1H    basis set group =>   2
---------------------------------
AUXILIARY/J BASIS SET INFORMATION
---------------------------------
There are 2 groups of distinct atoms

 Group   1 Type Zn  : 19s5p5d3f3g contracted to 8s5p5d2f3g pattern {121111111/11111/11111/21/111}
 Group   2 Type H   : 5s2p1d contracted to 3s1p1d pattern {311/2/1}

Atom   0Zn   basis set group =>   1
Atom   1H    basis set group =>   2


           ************************************************************
           *        Program running with 24 parallel MPI-processes    *
           *              working on a common directory               *
           ************************************************************
------------------------------------------------------------------------------
                           ORCA GTO INTEGRAL CALCULATION
                           -- RI-GTO INTEGRALS CHOSEN --
------------------------------------------------------------------------------

                         BASIS SET STATISTICS AND STARTUP INFO

Gaussian basis set:
 # of primitive gaussian shells          ...  232
 # of primitive gaussian functions       ...  526
 # of contracted shells                  ...   34
 # of contracted basis functions         ...  116
 Highest angular momentum                ...    4
 Maximum contraction depth               ...   19
Auxiliary gaussian basis set:
 # of primitive gaussian shells          ...   43
 # of primitive gaussian functions       ...  123
 # of contracted shells                  ...   28
 # of contracted aux-basis functions     ...  100
 Highest angular momentum                ...    4
 Maximum contraction depth               ...   12
Ratio of auxiliary to basis functions    ...  0.86
Integral package used                  ... LIBINT
 One Electron integrals                  ... done
 Ordering auxiliary basis shells         ... done
 Integral threshhold             Thresh  ...  1.000e-10
 Primitive cut-off               TCut    ...  1.000e-11
 Pre-screening matrix                    ... done
 Shell pair data                         ... 
 Ordering of the shell pairs             ... done (   0.000 sec) 595 of 595 pairs
 Determination of significant pairs      ... done (   0.000 sec)
 Creation of shell pair data             ... done (   0.001 sec)
 Storage of shell pair data              ... done (   0.001 sec)
 Shell pair data done in (   0.002 sec)
 Computing two index integrals           ... done
 Cholesky decomposition of the V-matrix  ... done


Timings:
 Total evaluation time                   ...   2.139 sec (  0.036 min)
 One electron matrix time                ...   0.045 sec (  0.001 min) =  2.1%
 Schwartz matrix evaluation time         ...   2.064 sec (  0.034 min) = 96.5%
 Two index repulsion integral time       ...   0.000 sec (  0.000 min) =  0.0%
 Cholesky decomposition of V             ...   0.001 sec (  0.000 min) =  0.0%
 Three index repulsion integral time     ...   0.000 sec (  0.000 min) =  0.0%



           ************************************************************
           *        Program running with 24 parallel MPI-processes    *
           *              working on a common directory               *
           ************************************************************
-------------------------------------------------------------------------------
                                 ORCA SCF
-------------------------------------------------------------------------------

------------
SCF SETTINGS
------------
Hamiltonian:
 Density Functional     Method          .... DFT(GTOs)
 Exchange Functional    Exchange        .... SCAN
 Correlation Functional Correlation     .... SCAN
 Gradients option       PostSCFGGA      .... off
   Density functional embedding theory  .... OFF
   NL short-range parameter             ....  6.400000
 RI-approximation to the Coulomb term is turned on
   Number of auxiliary basis functions  .... 100


General Settings:
 Integral files         IntName         .... 55_ZnH
 Hartree-Fock type      HFTyp           .... UHF
 Total Charge           Charge          ....    0
 Multiplicity           Mult            ....    2
 Number of Electrons    NEL             ....   31
 Basis Dimension        Dim             ....  116
 Nuclear Repulsion      ENuc            ....      9.8484688076 Eh

Convergence Acceleration:
 DIIS                   CNVDIIS         .... on
   Start iteration      DIISMaxIt       ....    12
   Startup error        DIISStart       ....  0.200000
   # of expansion vecs  DIISMaxEq       ....     5
   Bias factor          DIISBfac        ....   1.050
   Max. coefficient     DIISMaxC        ....  10.000
 Newton-Raphson         CNVNR           .... off
 SOSCF                  CNVSOSCF        .... off
 Level Shifting         CNVShift        .... on
   Level shift para.    LevelShift      ....    0.2500
   Turn off err/grad.   ShiftErr        ....    0.0010
 Zerner damping         CNVZerner       .... off
 Static damping         CNVDamp         .... on
   Fraction old density DampFac         ....    0.7000
   Max. Damping (<1)    DampMax         ....    0.9800
   Min. Damping (>=0)   DampMin         ....    0.0000
   Turn off err/grad.   DampErr         ....    0.1000
 Fernandez-Rico         CNVRico         .... off

SCF Procedure:
 Maximum # iterations   MaxIter         ....   125
 SCF integral mode      SCFMode         .... Direct
   Integral package                     .... LIBINT
 Reset frequency        DirectResetFreq ....    20
 Integral Threshold     Thresh          ....  1.000e-10 Eh
 Primitive CutOff       TCut            ....  1.000e-11 Eh

Convergence Tolerance:
 Convergence Check Mode ConvCheckMode   .... Total+1el-Energy
 Convergence forced     ConvForced      .... 0
 Energy Change          TolE            ....  1.000e-06 Eh
 1-El. energy change                    ....  1.000e-03 Eh
 DIIS Error             TolErr          ....  1.000e-06


Diagonalization of the overlap matrix:
Smallest eigenvalue                        ... 2.258e-04
Time for diagonalization                   ...    0.003 sec
Threshold for overlap eigenvalues          ... 1.000e-08
Number of eigenvalues below threshold      ... 0
Time for construction of square roots      ...    0.002 sec
Total time needed                          ...    0.004 sec

-------------------
DFT GRID GENERATION
-------------------

General Integration Accuracy     IntAcc      ...  4.670
Radial Grid Type                 RadialGrid  ... Gauss-Chebyshev
Angular Grid (max. acc.)         AngularGrid ... Lebedev-302
Angular grid pruning method      GridPruning ... 3 (G Style)
Weight generation scheme         WeightScheme... Becke
Basis function cutoff            BFCut       ...    1.0000e-10
Integration weight cutoff        WCut        ...    1.0000e-14
Grids for H and He will be reduced by one unit

# of grid points (after initial pruning)     ...  13034 (   0.0 sec)
# of grid points (after weights+screening)   ...  12999 (   0.0 sec)
nearest neighbour list constructed           ...    0.0 sec
Grid point re-assignment to atoms done       ...    0.0 sec
Grid point division into batches done        ...    0.1 sec
Reduced shell lists constructed in    0.1 sec

Total number of grid points                  ...    12999
Total number of batches                      ...      204
Average number of points per batch           ...       63
Average number of grid points per atom       ...     6500
Average number of shells per batch           ...    13.50 (39.71%)
Average number of basis functions per batch  ...    27.70 (23.88%)
Average number of large shells per batch     ...     7.10 (52.59%)
Average number of large basis fcns per batch ...    14.70 (53.07%)
Maximum spatial batch extension              ...  28.79, 26.18, 17.31 au
Average spatial batch extension              ...   0.92,  0.87,  0.66 au

Time for grid setup =    0.170 sec

------------------------------
INITIAL GUESS: MODEL POTENTIAL
------------------------------
Loading Hartree-Fock densities                     ... done
Calculating cut-offs                               ... done
Setting up the integral package                    ... done
Initializing the effective Hamiltonian             ... done
Starting the Coulomb interaction                   ... done (   0.0 sec)
Reading the grid                                   ... done
Mapping shells                                     ... done
Starting the XC term evaluation                    ... done (   0.0 sec)
  promolecular density results
     # of electrons  =     30.999520931
     EX              =    -79.396344152
     EC              =     -0.559899687
     EX+EC           =    -79.956243839
Transforming the Hamiltonian                       ... done (   0.0 sec)
Diagonalizing the Hamiltonian                      ... done (   0.0 sec)
Back transforming the eigenvectors                 ... done (   0.0 sec)
Now organizing SCF variables                       ... done
                      ------------------
                      INITIAL GUESS DONE (   0.3 sec)
                      ------------------
--------------
SCF ITERATIONS
--------------
ITER       Energy         Delta-E        Max-DP      RMS-DP      [F,P]     Damp
               ***  Starting incremental Fock matrix formation  ***
  0  -1780.0739513807   0.000000000000 0.08971668  0.00196258  0.5299594 0.7000
  1  -1780.1232216875  -0.049270306783 0.03583298  0.00083527  0.1327954 0.7000
                               ***Turning on DIIS***
  2  -1780.1433327699  -0.020111082427 0.08498428  0.00163052  0.0718361 0.0000
  3  -1780.1911096664  -0.047776896535 0.01277697  0.00026941  0.0361833 0.0000
  4  -1780.1934195920  -0.002309925577 0.00736929  0.00017413  0.0124131 0.0000
  5  -1780.1936676611  -0.000248069071 0.00411089  0.00006887  0.0098621 0.0000
  6  -1780.1937466766  -0.000079015530 0.00377204  0.00005103  0.0008322 0.0000
  7  -1780.1937591933  -0.000012516689 0.00112454  0.00001755  0.0003252 0.0000
  8  -1780.1937610376  -0.000001844348 0.00050722  0.00000923  0.0000866 0.0000
  9  -1780.1937617002  -0.000000662548 0.00024383  0.00000365  0.0000407 0.0000
                 **** Energy Check signals convergence ****

               *****************************************************
               *                     SUCCESS                       *
               *           SCF CONVERGED AFTER  10 CYCLES          *
               *****************************************************


----------------
TOTAL SCF ENERGY
----------------

Total Energy       :        -1780.19376216 Eh          -48441.53499 eV

Components:
Nuclear Repulsion  :            9.84846881 Eh             267.99046 eV
Electronic Energy  :        -1790.04223097 Eh          -48709.52545 eV
One Electron Energy:        -2502.95947191 Eh          -68108.98982 eV
Two Electron Energy:          712.91724095 Eh           19399.46438 eV

Virial components:
Potential Energy   :        -3559.08242252 Eh          -96847.55635 eV
Kinetic Energy     :         1778.88866037 Eh           48406.02136 eV
Virial Ratio       :            2.00073366


DFT components:
N(Alpha)           :       16.000007338275 electrons
N(Beta)            :       15.000008102560 electrons
N(Total)           :       31.000015440836 electrons
E(X)               :      -70.277363934189 Eh       
E(C)               :       -1.438449713750 Eh       
E(XC)              :      -71.715813647940 Eh       
DFET-embed. en.    :        0.000000000000 Eh       

---------------
SCF CONVERGENCE
---------------

  Last Energy change         ...   -4.5743e-07  Tolerance :   1.0000e-06
  Last MAX-Density change    ...    1.5966e-04  Tolerance :   1.0000e-05
  Last RMS-Density change    ...    1.8672e-06  Tolerance :   1.0000e-06
  Last DIIS Error            ...    2.2711e-05  Tolerance :   1.0000e-06

             **** THE GBW FILE WAS UPDATED (55_ZnH.gbw) ****
             **** DENSITY FILE WAS UPDATED (55_ZnH.scfp) ****
             **** ENERGY FILE WAS UPDATED (55_ZnH.en.tmp) ****
----------------------
UHF SPIN CONTAMINATION
----------------------

Warning: in a DFT calculation there is little theoretical justification to 
         calculate <S**2> as in Hartree-Fock theory. We will do it anyways
         but you should keep in mind that the values have only limited relevance

Expectation value of <S**2>     :     0.760497
Ideal value S*(S+1) for S=0.5   :     0.750000
Deviation                       :     0.010497

             **** THE GBW FILE WAS UPDATED (55_ZnH.gbw) ****
             **** DENSITY FILE WAS UPDATED (55_ZnH.scfp) ****
----------------
ORBITAL ENERGIES
----------------
                 SPIN UP ORBITALS
  NO   OCC          E(Eh)            E(eV) 
   0   1.0000    -346.794651     -9436.7622 
   1   1.0000     -42.019895     -1143.4195 
   2   1.0000     -37.005493     -1006.9706 
   3   1.0000     -37.004754     -1006.9505 
   4   1.0000     -37.004754     -1006.9505 
   5   1.0000      -4.805724      -130.7704 
   6   1.0000      -3.172687       -86.3332 
   7   1.0000      -3.172687       -86.3332 
   8   1.0000      -3.167046       -86.1797 
   9   1.0000      -0.439265       -11.9530 
  10   1.0000      -0.427978       -11.6459 
  11   1.0000      -0.427978       -11.6459 
  12   1.0000      -0.425076       -11.5669 
  13   1.0000      -0.425076       -11.5669 
  14   1.0000      -0.315064        -8.5733 
  15   1.0000      -0.179694        -4.8897 
  16   0.0000      -0.051364        -1.3977 
  17   0.0000      -0.051364        -1.3977 
  18   0.0000       0.032372         0.8809 
  19   0.0000       0.044029         1.1981 
  20   0.0000       0.066645         1.8135 
  21   0.0000       0.066673         1.8143 
  22   0.0000       0.090221         2.4550 
  23   0.0000       0.119669         3.2564 
  24   0.0000       0.153738         4.1834 
  25   0.0000       0.153738         4.1834 
  26   0.0000       0.177533         4.8309 
  27   0.0000       0.184353         5.0165 
  28   0.0000       0.184382         5.0173 
  29   0.0000       0.229585         6.2473 
  30   0.0000       0.229597         6.2477 
  31   0.0000       0.237965         6.4754 
  32   0.0000       0.292188         7.9508 
  33   0.0000       0.310163         8.4400 
  34   0.0000       0.310163         8.4400 
  35   0.0000       0.435005        11.8371 
  36   0.0000       0.541745        14.7416 
  37   0.0000       0.699659        19.0387 
  38   0.0000       0.699660        19.0387 
  39   0.0000       0.722010        19.6469 
  40   0.0000       0.722478        19.6596 
  41   0.0000       0.772538        21.0218 
  42   0.0000       0.775010        21.0891 
  43   0.0000       0.775463        21.1014 
  44   0.0000       0.826249        22.4834 
  45   0.0000       0.935111        25.4457 
  46   0.0000       0.935112        25.4457 
  47   0.0000       0.981007        26.6946 
  48   0.0000       0.981007        26.6946 
  49   0.0000       1.042011        28.3546 
  50   0.0000       1.074972        29.2515 
  51   0.0000       1.074972        29.2515 
  52   0.0000       1.233923        33.5768 
  53   0.0000       1.559314        42.4311 
  54   0.0000       1.643632        44.7255 
  55   0.0000       1.643632        44.7255 
  56   0.0000       1.738890        47.3176 
  57   0.0000       1.739096        47.3232 
  58   0.0000       2.043501        55.6065 
  59   0.0000       2.043501        55.6065 
  60   0.0000       2.250286        61.2334 
  61   0.0000       2.723867        74.1202 
  62   0.0000       2.767339        75.3031 
  63   0.0000       2.767504        75.3076 
  64   0.0000       2.798442        76.1495 
  65   0.0000       2.798443        76.1495 
  66   0.0000       2.923849        79.5620 
  67   0.0000       3.693773       100.5127 
  68   0.0000       3.695190       100.5512 
  69   0.0000       3.810383       103.6858 
  70   0.0000       3.810383       103.6858 
  71   0.0000       3.987400       108.5027 
  72   0.0000       3.987400       108.5027 
  73   0.0000       4.184148       113.8565 
  74   0.0000       4.233838       115.2086 
  75   0.0000       4.334727       117.9539 
  76   0.0000       4.334728       117.9539 
  77   0.0000       4.533942       123.3748 
  78   0.0000       4.961431       135.0074 
  79   0.0000       4.961431       135.0074 
  80   0.0000       5.010957       136.3551 
  81   0.0000       5.010973       136.3555 
  82   0.0000       5.216342       141.9439 
  83   0.0000       5.216342       141.9439 
  84   0.0000       5.221709       142.0899 
  85   0.0000       5.620409       152.9391 
  86   0.0000       7.424684       202.0359 
  87   0.0000       7.424746       202.0376 
  88   0.0000       7.427714       202.1184 
  89   0.0000       7.427714       202.1184 
  90   0.0000       7.433109       202.2652 
  91   0.0000       7.433134       202.2659 
  92   0.0000       7.510770       204.3784 
  93   0.0000       7.510770       204.3784 
  94   0.0000       7.810576       212.5366 
  95   0.0000      10.251846       278.9669 
  96   0.0000      10.251865       278.9674 
  97   0.0000      10.305853       280.4365 
  98   0.0000      10.305853       280.4365 
  99   0.0000      10.777904       293.2817 
 100   0.0000      15.995989       435.2730 
 101   0.0000      15.995989       435.2730 
 102   0.0000      16.020229       435.9326 
 103   0.0000      16.020248       435.9331 
 104   0.0000      16.120861       438.6709 
 105   0.0000      16.120861       438.6709 
 106   0.0000      16.207060       441.0165 
 107   0.0000      19.892495       541.3023 
 108   0.0000      19.892518       541.3029 
 109   0.0000      19.894554       541.3583 
 110   0.0000      19.894554       541.3583 
 111   0.0000      19.897545       541.4397 
 112   0.0000      19.897550       541.4399 
 113   0.0000      19.929473       542.3085 
 114   0.0000      19.929473       542.3085 
 115   0.0000      20.048173       545.5385 

                 SPIN DOWN ORBITALS
  NO   OCC          E(Eh)            E(eV) 
   0   1.0000    -346.793454     -9436.7296 
   1   1.0000     -42.018252     -1143.3748 
   2   1.0000     -37.003707     -1006.9221 
   3   1.0000     -37.003707     -1006.9221 
   4   1.0000     -37.003416     -1006.9141 
   5   1.0000      -4.806780      -130.7991 
   6   1.0000      -3.173256       -86.3487 
   7   1.0000      -3.173256       -86.3487 
   8   1.0000      -3.167456       -86.1909 
   9   1.0000      -0.430629       -11.7180 
  10   1.0000      -0.425280       -11.5725 
  11   1.0000      -0.425280       -11.5724 
  12   1.0000      -0.421540       -11.4707 
  13   1.0000      -0.421540       -11.4707 
  14   1.0000      -0.291176        -7.9233 
  15   0.0000      -0.101680        -2.7668 
  16   0.0000      -0.026196        -0.7128 
  17   0.0000      -0.026196        -0.7128 
  18   0.0000      -0.014113        -0.3840 
  19   0.0000       0.049672         1.3516 
  20   0.0000       0.058655         1.5961 
  21   0.0000       0.058671         1.5965 
  22   0.0000       0.095758         2.6057 
  23   0.0000       0.157163         4.2766 
  24   0.0000       0.172273         4.6878 
  25   0.0000       0.172274         4.6878 
  26   0.0000       0.183461         4.9922 
  27   0.0000       0.206495         5.6190 
  28   0.0000       0.206590         5.6216 
  29   0.0000       0.260068         7.0768 
  30   0.0000       0.260070         7.0769 
  31   0.0000       0.268799         7.3144 
  32   0.0000       0.344161         9.3651 
  33   0.0000       0.360849         9.8192 
  34   0.0000       0.360850         9.8192 
  35   0.0000       0.484485        13.1835 
  36   0.0000       0.607405        16.5283 
  37   0.0000       0.720459        19.6047 
  38   0.0000       0.720460        19.6047 
  39   0.0000       0.749068        20.3832 
  40   0.0000       0.750186        20.4136 
  41   0.0000       0.771065        20.9818 
  42   0.0000       0.810863        22.0647 
  43   0.0000       0.811330        22.0774 
  44   0.0000       0.882312        24.0089 
  45   0.0000       0.964271        26.2392 
  46   0.0000       0.964272        26.2392 
  47   0.0000       1.034477        28.1495 
  48   0.0000       1.034477        28.1496 
  49   0.0000       1.107555        30.1381 
  50   0.0000       1.112011        30.2593 
  51   0.0000       1.112011        30.2594 
  52   0.0000       1.276581        34.7375 
  53   0.0000       1.621937        44.1351 
  54   0.0000       1.652024        44.9539 
  55   0.0000       1.652024        44.9539 
  56   0.0000       1.750064        47.6217 
  57   0.0000       1.750653        47.6377 
  58   0.0000       2.067771        56.2669 
  59   0.0000       2.067771        56.2669 
  60   0.0000       2.302542        62.6554 
  61   0.0000       2.761004        75.1307 
  62   0.0000       2.771276        75.4103 
  63   0.0000       2.771341        75.4120 
  64   0.0000       2.806053        76.3566 
  65   0.0000       2.806053        76.3566 
  66   0.0000       3.000058        81.6357 
  67   0.0000       3.788430       103.0884 
  68   0.0000       3.788469       103.0895 
  69   0.0000       3.902416       106.1901 
  70   0.0000       3.902416       106.1901 
  71   0.0000       4.098584       111.5281 
  72   0.0000       4.098584       111.5281 
  73   0.0000       4.210872       114.5836 
  74   0.0000       4.288717       116.7019 
  75   0.0000       4.341754       118.1451 
  76   0.0000       4.341754       118.1451 
  77   0.0000       4.609195       125.4226 
  78   0.0000       4.963875       135.0739 
  79   0.0000       4.963875       135.0739 
  80   0.0000       5.010589       136.3451 
  81   0.0000       5.010647       136.3466 
  82   0.0000       5.218886       142.0131 
  83   0.0000       5.218886       142.0131 
  84   0.0000       5.251970       142.9134 
  85   0.0000       5.625548       153.0789 
  86   0.0000       7.432802       202.2568 
  87   0.0000       7.432866       202.2586 
  88   0.0000       7.437842       202.3940 
  89   0.0000       7.437842       202.3940 
  90   0.0000       7.445171       202.5934 
  91   0.0000       7.445229       202.5950 
  92   0.0000       7.524789       204.7599 
  93   0.0000       7.524789       204.7599 
  94   0.0000       7.825513       212.9430 
  95   0.0000      10.248297       278.8703 
  96   0.0000      10.248343       278.8716 
  97   0.0000      10.299970       280.2764 
  98   0.0000      10.299970       280.2764 
  99   0.0000      10.782391       293.4038 
 100   0.0000      16.002817       435.4588 
 101   0.0000      16.002817       435.4588 
 102   0.0000      16.025001       436.0624 
 103   0.0000      16.025013       436.0628 
 104   0.0000      16.126527       438.8251 
 105   0.0000      16.126527       438.8251 
 106   0.0000      16.211524       441.1380 
 107   0.0000      19.901279       541.5413 
 108   0.0000      19.901303       541.5420 
 109   0.0000      19.903747       541.6085 
 110   0.0000      19.903747       541.6085 
 111   0.0000      19.907272       541.7044 
 112   0.0000      19.907278       541.7046 
 113   0.0000      19.940159       542.5993 
 114   0.0000      19.940159       542.5993 
 115   0.0000      20.059785       545.8545 

                    ********************************
                    * MULLIKEN POPULATION ANALYSIS *
                    ********************************

--------------------------------------------
MULLIKEN ATOMIC CHARGES AND SPIN POPULATIONS
--------------------------------------------
   0 Zn:    0.157162    0.657205
   1 H :   -0.157162    0.342795
Sum of atomic charges         :    0.0000000
Sum of atomic spin populations:    1.0000000

-----------------------------------------------------
MULLIKEN REDUCED ORBITAL CHARGES AND SPIN POPULATIONS
-----------------------------------------------------
CHARGE
  0 Zns       :     7.407417  s :     7.407417
      pz      :     4.461162  p :    12.462209
      px      :     4.000523
      py      :     4.000523
      dz2     :     1.978902  d :     9.971987
      dxz     :     1.996631
      dyz     :     1.996631
      dx2y2   :     1.999911
      dxy     :     1.999913
      f0      :     0.001176  f :     0.001214
      f+1     :     0.000010
      f-1     :     0.000010
      f+2     :     0.000010
      f-2     :     0.000009
      f+3     :     0.000000
      f-3     :     0.000000
      g0      :     0.000010  g :     0.000010
      g+1     :     0.000000
      g-1     :     0.000000
      g+2     :     0.000000
      g-2     :     0.000000
      g+3     :     0.000000
      g-3     :     0.000000
      g+4     :     0.000000
      g-4     :     0.000000
  1 H s       :     1.138539  s :     1.138539
      pz      :     0.014059  p :     0.019126
      px      :     0.002533
      py      :     0.002533
      dz2     :    -0.001265  d :    -0.000503
      dxz     :     0.000303
      dyz     :     0.000303
      dx2y2   :     0.000079
      dxy     :     0.000077

SPIN
  0 Zns       :     0.340850  s :     0.340850
      pz      :     0.305859  p :     0.305888
      px      :     0.000014
      py      :     0.000014
      dz2     :     0.006977  d :     0.010170
      dxz     :     0.001409
      dyz     :     0.001409
      dx2y2   :     0.000193
      dxy     :     0.000181
      f0      :     0.000295  f :     0.000295
      f+1     :    -0.000007
      f-1     :    -0.000007
      f+2     :     0.000007
      f-2     :     0.000007
      f+3     :     0.000000
      f-3     :     0.000000
      g0      :     0.000002  g :     0.000002
      g+1     :    -0.000000
      g-1     :    -0.000000
      g+2     :    -0.000000
      g-2     :    -0.000000
      g+3     :    -0.000000
      g-3     :    -0.000000
      g+4     :     0.000000
      g-4     :     0.000000
  1 H s       :     0.343120  s :     0.343120
      pz      :     0.003627  p :     0.001933
      px      :    -0.000847
      py      :    -0.000847
      dz2     :    -0.000731  d :    -0.002259
      dxz     :    -0.000570
      dyz     :    -0.000570
      dx2y2   :    -0.000200
      dxy     :    -0.000188


                     *******************************
                     * LOEWDIN POPULATION ANALYSIS *
                     *******************************

-------------------------------------------
LOEWDIN ATOMIC CHARGES AND SPIN POPULATIONS
-------------------------------------------
   0 Zn:    0.529858    0.777233
   1 H :   -0.529858    0.222767

----------------------------------------------------
LOEWDIN REDUCED ORBITAL CHARGES AND SPIN POPULATIONS
----------------------------------------------------
CHARGE
  0 Zns       :     6.952115  s :     6.952115
      pz      :     4.587239  p :    12.551650
      px      :     3.982205
      py      :     3.982205
      dz2     :     2.008616  d :     9.960280
      dxz     :     1.977942
      dyz     :     1.977942
      dx2y2   :     1.997889
      dxy     :     1.997891
      f0      :     0.005672  f :     0.006055
      f+1     :     0.000176
      f-1     :     0.000176
      f+2     :     0.000015
      f-2     :     0.000015
      f+3     :     0.000000
      f-3     :     0.000000
      g0      :     0.000039  g :     0.000043
      g+1     :     0.000002
      g-1     :     0.000002
      g+2     :     0.000000
      g-2     :     0.000000
      g+3     :     0.000000
      g-3     :     0.000000
      g+4     :     0.000000
      g-4     :     0.000000
  1 H s       :     1.111593  s :     1.111593
      pz      :     0.238527  p :     0.264150
      px      :     0.012811
      py      :     0.012811
      dz2     :     0.096200  d :     0.154115
      dxz     :     0.026864
      dyz     :     0.026864
      dx2y2   :     0.002095
      dxy     :     0.002093

SPIN
  0 Zns       :     0.259737  s :     0.259737
      pz      :     0.477637  p :     0.479156
      px      :     0.000760
      py      :     0.000760
      dz2     :     0.033189  d :     0.035072
      dxz     :     0.000872
      dyz     :     0.000872
      dx2y2   :     0.000073
      dxy     :     0.000065
      f0      :     0.003131  f :     0.003250
      f+1     :     0.000045
      f-1     :     0.000045
      f+2     :     0.000015
      f-2     :     0.000015
      f+3     :     0.000000
      f-3     :     0.000000
      g0      :     0.000018  g :     0.000017
      g+1     :    -0.000000
      g-1     :    -0.000000
      g+2     :    -0.000000
      g-2     :    -0.000000
      g+3     :    -0.000000
      g-3     :    -0.000000
      g+4     :     0.000000
      g-4     :     0.000000
  1 H s       :     0.167918  s :     0.167918
      pz      :     0.054553  p :     0.053100
      px      :    -0.000727
      py      :    -0.000727
      dz2     :     0.003816  d :     0.001749
      dxz     :    -0.000950
      dyz     :    -0.000950
      dx2y2   :    -0.000088
      dxy     :    -0.000080


                      *****************************
                      * MAYER POPULATION ANALYSIS *
                      *****************************

  NA   - Mulliken gross atomic population
  ZA   - Total nuclear charge
  QA   - Mulliken gross atomic charge
  VA   - Mayer's total valence
  BVA  - Mayer's bonded valence
  FA   - Mayer's free valence

  ATOM       NA         ZA         QA         VA         BVA        FA
  0 Zn    29.8428    30.0000     0.1572     1.5552     0.8498     0.7054
  1 H      1.1572     1.0000    -0.1572     0.9690     0.8498     0.1193

  Mayer bond orders larger than 0.100000
B(  0-Zn,  1-H ) :   0.8498 

-------
TIMINGS
-------

Total SCF time: 0 days 0 hours 0 min 2 sec 

Total time                  ....       2.020 sec
Sum of individual times     ....       1.913 sec  ( 94.7%)

Fock matrix formation       ....       1.566 sec  ( 77.5%)
  Split-RI-J                ....       1.244 sec  ( 79.4% of F)
  XC integration            ....       0.274 sec  ( 17.5% of F)
    Basis function eval.    ....       0.041 sec  ( 14.8% of XC)
    Density eval.           ....       0.035 sec  ( 12.8% of XC)
    XC-Functional eval.     ....       0.009 sec  (  3.3% of XC)
    XC-Potential eval.      ....       0.107 sec  ( 39.0% of XC)
Diagonalization             ....       0.036 sec  (  1.8%)
Density matrix formation    ....       0.006 sec  (  0.3%)
Population analysis         ....       0.006 sec  (  0.3%)
Initial guess               ....       0.117 sec  (  5.8%)
Orbital Transformation      ....       0.000 sec  (  0.0%)
Orbital Orthonormalization  ....       0.000 sec  (  0.0%)
DIIS solution               ....       0.013 sec  (  0.6%)
Grid generation             ....       0.170 sec  (  8.4%)


-------------------------------------------------------------------------------
                          DFT DISPERSION CORRECTION                            
                                                                               
                              DFTD3 V3.1  Rev 1                                
                          USING Becke-Johnson damping                          
-------------------------------------------------------------------------------
The SCAN functional is recognized
Active option DFTDOPT                   ...         4   

molecular C6(AA) [au] = 319.492033 


            DFT-D V3
 parameters
 s6 scaling factor         :     1.0000 
 a1 scaling factor         :     0.5380 
 s8 scaling factor         :     0.0000 
 a2 scaling factor         :     5.4200 
 ad hoc parameters k1-k3   :    16.0000     1.3333    -4.0000 

 Edisp/kcal,au: -0.048502031289  -0.000077292899 
 E6   /kcal   :  -0.048502031 
 E8   /kcal   :  -0.000000000 
 % E8         :   0.000000000 

-------------------------   ----------------
Dispersion correction           -0.000077293
-------------------------   ----------------


-------------------------   --------------------
FINAL SINGLE POINT ENERGY     -1780.193839450522
-------------------------   --------------------


                            ***************************************
                            *     ORCA property calculations      *
                            ***************************************

                                    ---------------------
                                    Active property flags
                                    ---------------------
   (+) Dipole Moment


------------------------------------------------------------------------------
                       ORCA ELECTRIC PROPERTIES CALCULATION
------------------------------------------------------------------------------

Dipole Moment Calculation                       ... on
Quadrupole Moment Calculation                   ... off
Polarizability Calculation                      ... off
GBWName                                         ... 55_ZnH.gbw
Electron density file                           ... 55_ZnH.scfp
The origin for moment calculation is the CENTER OF MASS  = ( 0.000000,  0.000000  0.412898)

-------------
DIPOLE MOMENT
-------------
                                X             Y             Z
Electronic contribution:     -0.00000       0.00000      -1.83857
Nuclear contribution   :      0.00000       0.00000       1.61237
                        -----------------------------------------
Total Dipole Moment    :     -0.00000       0.00000      -0.22620
                        -----------------------------------------
Magnitude (a.u.)       :      0.22620
Magnitude (Debye)      :      0.57495



--------------------
Rotational spectrum 
--------------------
 
Rotational constants in cm-1:     0.000000     6.535423     6.535423 
Rotational constants in MHz :     0.000000 195927.048997 195927.048997 

 Dipole components along the rotational axes: 
x,y,z [a.u.] :    -0.226198     0.000000    -0.000000 
x,y,z [Debye]:    -0.574951     0.000000    -0.000000 

 

Timings for individual modules:

Sum of individual times         ...        4.885 sec (=   0.081 min)
GTO integral calculation        ...        2.544 sec (=   0.042 min)  52.1 %
SCF iterations                  ...        2.341 sec (=   0.039 min)  47.9 %
                             ****ORCA TERMINATED NORMALLY****
TOTAL RUN TIME: 0 days 0 hours 0 minutes 5 seconds 462 msec
