
                                 *****************
                                 * O   R   C   A *
                                 *****************

           --- An Ab Initio, DFT and Semiempirical electronic structure package ---

                  #######################################################
                  #                        -***-                        #
                  #          Department of theory and spectroscopy      #
                  #               Directorship: Frank Neese             #
                  #        Max Planck Institute fuer Kohlenforschung    #
                  #                Kaiser Wilhelm Platz 1               #
                  #                 D-45470 Muelheim/Ruhr               #
                  #                      Germany                        #
                  #                                                     #
                  #                  All rights reserved                #
                  #                        -***-                        #
                  #######################################################


                         Program Version 4.2.0 -  RELEASE  -


 With contributions from (in alphabetic order):
   Daniel Aravena         : Magnetic Suceptibility
   Michael Atanasov       : Ab Initio Ligand Field Theory (pilot matlab implementation)
   Alexander A. Auer      : GIAO ZORA, VPT2
   Ute Becker             : Parallelization
   Giovanni Bistoni       : ED, misc. LED, open-shell LED, HFLED
   Martin Brehm           : Molecular dynamics
   Dmytro Bykov           : SCF Hessian
   Vijay G. Chilkuri      : MRCI spin determinant printing, contributions to CSF-ICE
   Dipayan Datta          : RHF DLPNO-CCSD density
   Achintya Kumar Dutta   : EOM-CC, STEOM-CC
   Dmitry Ganyushin       : Spin-Orbit,Spin-Spin,Magnetic field MRCI
   Miquel Garcia          : C-PCM Hessian, Gaussian charge scheme
   Yang Guo               : DLPNO-NEVPT2, CIM, IAO-localization
   Andreas Hansen         : Spin unrestricted coupled pair/coupled cluster methods
   Benjamin Helmich-Paris : CASSCF linear response (MC-RPA)
   Lee Huntington         : MR-EOM, pCC
   Robert Izsak           : Overlap fitted RIJCOSX, COSX-SCS-MP3, EOM
   Christian Kollmar      : KDIIS, OOCD, Brueckner-CCSD(T), CCSD density
   Simone Kossmann        : Meta GGA functionals, TD-DFT gradient, OOMP2, MP2 Hessian
   Martin Krupicka        : AUTO-CI
   Lucas Lang             : DCDCAS
   Dagmar Lenk            : GEPOL surface, SMD
   Dimitrios Liakos       : Extrapolation schemes; Compound Job, initial MDCI parallelization
   Dimitrios Manganas     : Further ROCIS development; embedding schemes
   Dimitrios Pantazis     : SARC Basis sets
   Taras Petrenko         : DFT Hessian,TD-DFT gradient, ASA, ECA, R-Raman, ABS, FL, XAS/XES, NRVS
   Peter Pinski           : DLPNO-MP2, DLPNO-MP2 Gradient
   Christoph Reimann      : Effective Core Potentials
   Marius Retegan         : Local ZFS, SOC
   Christoph Riplinger    : Optimizer, TS searches, QM/MM, DLPNO-CCSD(T), (RO)-DLPNO pert. Triples
   Tobias Risthaus        : Range-separated hybrids, TD-DFT gradient, RPA, STAB
   Michael Roemelt        : Original ROCIS implementation
   Masaaki Saitow         : Open-shell DLPNO-CCSD energy and density
   Barbara Sandhoefer     : DKH picture change effects
   Avijit Sen             : IP-ROCIS
   Kantharuban Sivalingam : CASSCF convergence, NEVPT2, FIC-MRCI
   Bernardo de Souza      : ESD, SOC TD-DFT
   Georgi Stoychev        : AutoAux, RI-MP2 NMR
   Willem Van den Heuvel  : Paramagnetic NMR
   Boris Wezisla          : Elementary symmetry handling
   Frank Wennmohs         : Technical directorship


 We gratefully acknowledge several colleagues who have allowed us to
 interface, adapt or use parts of their codes:
   Stefan Grimme, W. Hujo, H. Kruse,             : VdW corrections, initial TS optimization,
                  C. Bannwarth                     DFT functionals, gCP, sTDA/sTD-DF
   Ed Valeev, F. Pavosevic, A. Kumar             : LibInt (2-el integral package), F12 methods
   Garnet Chan, S. Sharma, J. Yang, R. Olivares  : DMRG
   Ulf Ekstrom                                   : XCFun DFT Library
   Mihaly Kallay                                 : mrcc  (arbitrary order and MRCC methods)
   Andreas Klamt, Michael Diedenhofen            : otool_cosmo (COSMO solvation model)
   Jiri Pittner, Ondrej Demel                    : Mk-CCSD
   Frank Weinhold                                : gennbo (NPA and NBO analysis)
   Christopher J. Cramer and Donald G. Truhlar   : smd solvation model
   Lars Goerigk                                  : TD-DFT with DH, B97 family of functionals
   V. Asgeirsson, H. Jonsson                     : NEB implementation
   FAccTs GmbH                                   : IRC, NEB, NEB-TS, Multilevel, MM, QM/MM, CI optimization
   S Lehtola, MJT Oliveira, MAL Marques          : LibXC Library


 Your calculation uses the libint2 library for the computation of 2-el integrals
 For citations please refer to: http://libint.valeyev.net

 Your ORCA version has been built with support for libXC version: 4.2.3
 For citations please refer to: https://tddft.org/programs/libxc/

 This ORCA versions uses:
   CBLAS   interface :  Fast vector & matrix operations
   LAPACKE interface :  Fast linear algebra routines
   SCALAPACK package :  Parallel linear algebra routines


Your calculation utilizes the atom-pairwise dispersion correction
with the Becke-Johnson damping scheme (D3BJ)
Cite in your paper:
S.Grimme, S.Ehrlich, L.Goerigk, J Comput Chem, (2011), 32, 1456–1465 
S.Grimme, J.Antony, S.Ehrlich and H.Krieg, J.Chem.Phys., 132, (2010), 154104 
   

----- Orbital basis set information -----
Your calculation utilizes the basis: aug-cc-pVTZ 
    H, B-Ne : Obtained from the ccRepo (grant-hill.group.shef.ac.uk/ccrepo) Feb. 2017
              R. A. Kendall, T. H. Dunning, Jr., R. J. Harrison, J. Chem. Phys. 96, 6796 (1992)
         He : Obtained from the ccRepo (grant-hill.group.shef.ac.uk/ccrepo) Feb. 2017
              D. E. Woon, T. H. Dunning, Jr., J. Chem. Phys. 100, 2975 (1994)
  Li-Be, Na : Obtained from the ccRepo (grant-hill.group.shef.ac.uk/ccrepo) Feb. 2017
              B. P. Prascher, D. E. Woon, K. A. Peterson, T. H. Dunning, Jr., A. K. Wilson, Theor. Chem. Acc. 128, 69 (2011)
         Mg : Obtained from the Peterson Research Group Website (tyr0.chem.wsu.edu/~kipeters) Feb. 2017
              B. P. Prascher, D. E. Woon, K. A. Peterson, T. H. Dunning, Jr., A. K. Wilson, Theor. Chem. Acc. 128, 69 (2011)
      Al-Ar : Obtained from the ccRepo (grant-hill.group.shef.ac.uk/ccrepo) Feb. 2017
              D. E. Woon, T. H. Dunning, Jr., J. Chem. Phys. 98, 1358 (1993)
      Sc-Zn : Obtained from the ccRepo (grant-hill.group.shef.ac.uk/ccrepo) Feb. 2017
              N. B. Balabanov, K. A. Peterson, J. Chem. Phys. 123, 064107 (2005)
              N. B. Balabanov, K. A. Peterson, J. Chem. Phys. 125, 074110 (2006)
      Ga-Kr : Obtained from the ccRepo (grant-hill.group.shef.ac.uk/ccrepo) Feb. 2017
              A. K. Wilson, D. E. Woon, K. A. Peterson, T. H. Dunning, Jr., J. Chem. Phys. 110, 7667 (1999)
     Ag, Au : Obtained from the Peterson Research Group Website (tyr0.chem.wsu.edu/~kipeters) Feb. 2017
              K. A. Peterson, C. Puzzarini, Theor. Chem. Acc. 114, 283 (2005)

----- AuxJ basis set information -----
Your calculation utilizes the auxiliary basis: def2/J
   F. Weigend, Phys. Chem. Chem. Phys. 8, 1057 (2006).

================================================================================
                                        WARNINGS
                       Please study these warnings very carefully!
================================================================================


WARNING: your system is open-shell and RHF/RKS was chosen
  ===> : WILL SWITCH to UHF/UKS


WARNING: The SCAN functional is very grid-sensitive!
         Use at least GRID5 and a higher intacc

INFO   : the flag for use of LIBINT has been found!

================================================================================
                                       INPUT FILE
================================================================================
NAME = 56_ZnF.in
|  1> #
|  2> # 56_ZnF scanfunc/aug-cc-pvtz
|  3> #
|  4> ! scanfunc d3bj aug-cc-pvtz def2/j grid4 nofinalgrid
|  5> 
|  6> *xyz 0 2
|  7>   Zn  0.00000000000000      0.00000000000000      0.10305473518103
|  8>   F   0.00000000000000      0.00000000000000      1.89694526481897
|  9> *
| 10> 
| 11> %pal
| 12> nprocs 24
| 13> end
| 14> 
| 15> 
| 16>                          ****END OF INPUT****
================================================================================

                       ****************************
                       * Single Point Calculation *
                       ****************************

---------------------------------
CARTESIAN COORDINATES (ANGSTROEM)
---------------------------------
  Zn     0.000000    0.000000    0.103055
  F      0.000000    0.000000    1.896945

----------------------------
CARTESIAN COORDINATES (A.U.)
----------------------------
  NO LB      ZA    FRAG     MASS         X           Y           Z
   0 Zn   30.0000    0    65.380    0.000000    0.000000    0.194745
   1 F     9.0000    0    18.998    0.000000    0.000000    3.584707

--------------------------------
INTERNAL COORDINATES (ANGSTROEM)
--------------------------------
 Zn     0   0   0     0.000000000000     0.00000000     0.00000000
 F      1   0   0     1.793890529638     0.00000000     0.00000000

---------------------------
INTERNAL COORDINATES (A.U.)
---------------------------
 Zn     0   0   0     0.000000000000     0.00000000     0.00000000
 F      1   0   0     3.389961815251     0.00000000     0.00000000

---------------------
BASIS SET INFORMATION
---------------------
There are 2 groups of distinct atoms

 Group   1 Type Zn  : 116s77p23d3f2g contracted to 8s7p5d3f2g pattern {19191919191911/151515151511/77711/111/11}
 Group   2 Type F   : 19s6p3d2f contracted to 5s4p3d2f pattern {88111/3111/111/11}

Atom   0Zn   basis set group =>   1
Atom   1F    basis set group =>   2
---------------------------------
AUXILIARY/J BASIS SET INFORMATION
---------------------------------
There are 2 groups of distinct atoms

 Group   1 Type Zn  : 19s5p5d3f3g contracted to 8s5p5d2f3g pattern {121111111/11111/11111/21/111}
 Group   2 Type F   : 12s5p4d2f1g contracted to 6s4p3d1f1g pattern {711111/2111/211/2/1}

Atom   0Zn   basis set group =>   1
Atom   1F    basis set group =>   2


           ************************************************************
           *        Program running with 24 parallel MPI-processes    *
           *              working on a common directory               *
           ************************************************************
------------------------------------------------------------------------------
                           ORCA GTO INTEGRAL CALCULATION
                           -- RI-GTO INTEGRALS CHOSEN --
------------------------------------------------------------------------------

                         BASIS SET STATISTICS AND STARTUP INFO

Gaussian basis set:
 # of primitive gaussian shells          ...  251
 # of primitive gaussian functions       ...  567
 # of contracted shells                  ...   39
 # of contracted basis functions         ...  139
 Highest angular momentum                ...    4
 Maximum contraction depth               ...   19
Auxiliary gaussian basis set:
 # of primitive gaussian shells          ...   59
 # of primitive gaussian functions       ...  177
 # of contracted shells                  ...   38
 # of contracted aux-basis functions     ...  138
 Highest angular momentum                ...    4
 Maximum contraction depth               ...   12
Ratio of auxiliary to basis functions    ...  0.99
Integral package used                  ... LIBINT
 One Electron integrals                  ... done
 Ordering auxiliary basis shells         ... done
 Integral threshhold             Thresh  ...  1.000e-10
 Primitive cut-off               TCut    ...  1.000e-11
 Pre-screening matrix                    ... done
 Shell pair data                         ... 
 Ordering of the shell pairs             ... done (   0.000 sec) 780 of 780 pairs
 Determination of significant pairs      ... done (   0.000 sec)
 Creation of shell pair data             ... done (   0.001 sec)
 Storage of shell pair data              ... done (   0.040 sec)
 Shell pair data done in (   0.041 sec)
 Computing two index integrals           ... done
 Cholesky decomposition of the V-matrix  ... done


Timings:
 Total evaluation time                   ...   2.256 sec (  0.038 min)
 One electron matrix time                ...   0.042 sec (  0.001 min) =  1.9%
 Schwartz matrix evaluation time         ...   2.133 sec (  0.036 min) = 94.5%
 Two index repulsion integral time       ...   0.001 sec (  0.000 min) =  0.0%
 Cholesky decomposition of V             ...   0.005 sec (  0.000 min) =  0.2%
 Three index repulsion integral time     ...   0.000 sec (  0.000 min) =  0.0%



           ************************************************************
           *        Program running with 24 parallel MPI-processes    *
           *              working on a common directory               *
           ************************************************************
-------------------------------------------------------------------------------
                                 ORCA SCF
-------------------------------------------------------------------------------

------------
SCF SETTINGS
------------
Hamiltonian:
 Density Functional     Method          .... DFT(GTOs)
 Exchange Functional    Exchange        .... SCAN
 Correlation Functional Correlation     .... SCAN
 Gradients option       PostSCFGGA      .... off
   Density functional embedding theory  .... OFF
   NL short-range parameter             ....  6.400000
 RI-approximation to the Coulomb term is turned on
   Number of auxiliary basis functions  .... 138


General Settings:
 Integral files         IntName         .... 56_ZnF
 Hartree-Fock type      HFTyp           .... UHF
 Total Charge           Charge          ....    0
 Multiplicity           Mult            ....    2
 Number of Electrons    NEL             ....   39
 Basis Dimension        Dim             ....  139
 Nuclear Repulsion      ENuc            ....     79.6469148370 Eh

Convergence Acceleration:
 DIIS                   CNVDIIS         .... on
   Start iteration      DIISMaxIt       ....    12
   Startup error        DIISStart       ....  0.200000
   # of expansion vecs  DIISMaxEq       ....     5
   Bias factor          DIISBfac        ....   1.050
   Max. coefficient     DIISMaxC        ....  10.000
 Newton-Raphson         CNVNR           .... off
 SOSCF                  CNVSOSCF        .... off
 Level Shifting         CNVShift        .... on
   Level shift para.    LevelShift      ....    0.2500
   Turn off err/grad.   ShiftErr        ....    0.0010
 Zerner damping         CNVZerner       .... off
 Static damping         CNVDamp         .... on
   Fraction old density DampFac         ....    0.7000
   Max. Damping (<1)    DampMax         ....    0.9800
   Min. Damping (>=0)   DampMin         ....    0.0000
   Turn off err/grad.   DampErr         ....    0.1000
 Fernandez-Rico         CNVRico         .... off

SCF Procedure:
 Maximum # iterations   MaxIter         ....   125
 SCF integral mode      SCFMode         .... Direct
   Integral package                     .... LIBINT
 Reset frequency        DirectResetFreq ....    20
 Integral Threshold     Thresh          ....  1.000e-10 Eh
 Primitive CutOff       TCut            ....  1.000e-11 Eh

Convergence Tolerance:
 Convergence Check Mode ConvCheckMode   .... Total+1el-Energy
 Convergence forced     ConvForced      .... 0
 Energy Change          TolE            ....  1.000e-06 Eh
 1-El. energy change                    ....  1.000e-03 Eh
 DIIS Error             TolErr          ....  1.000e-06


Diagonalization of the overlap matrix:
Smallest eigenvalue                        ... 3.143e-04
Time for diagonalization                   ...    0.006 sec
Threshold for overlap eigenvalues          ... 1.000e-08
Number of eigenvalues below threshold      ... 0
Time for construction of square roots      ...    0.002 sec
Total time needed                          ...    0.009 sec

-------------------
DFT GRID GENERATION
-------------------

General Integration Accuracy     IntAcc      ...  4.670
Radial Grid Type                 RadialGrid  ... Gauss-Chebyshev
Angular Grid (max. acc.)         AngularGrid ... Lebedev-302
Angular grid pruning method      GridPruning ... 3 (G Style)
Weight generation scheme         WeightScheme... Becke
Basis function cutoff            BFCut       ...    1.0000e-10
Integration weight cutoff        WCut        ...    1.0000e-14
Grids for H and He will be reduced by one unit

# of grid points (after initial pruning)     ...  15912 (   0.0 sec)
# of grid points (after weights+screening)   ...  15864 (   0.0 sec)
nearest neighbour list constructed           ...    0.0 sec
Grid point re-assignment to atoms done       ...    0.0 sec
Grid point division into batches done        ...    0.1 sec
Reduced shell lists constructed in    0.1 sec

Total number of grid points                  ...    15864
Total number of batches                      ...      248
Average number of points per batch           ...       63
Average number of grid points per atom       ...     7932
Average number of shells per batch           ...    13.42 (34.40%)
Average number of basis functions per batch  ...    29.58 (21.28%)
Average number of large shells per batch     ...     6.83 (50.93%)
Average number of large basis fcns per batch ...    15.83 (53.52%)
Maximum spatial batch extension              ...  22.45, 22.17, 15.93 au
Average spatial batch extension              ...   0.80,  0.79,  0.61 au

Time for grid setup =    0.156 sec

------------------------------
INITIAL GUESS: MODEL POTENTIAL
------------------------------
Loading Hartree-Fock densities                     ... done
Calculating cut-offs                               ... done
Setting up the integral package                    ... done
Initializing the effective Hamiltonian             ... done
Starting the Coulomb interaction                   ... done (   0.0 sec)
Reading the grid                                   ... done
Mapping shells                                     ... done
Starting the XC term evaluation                    ... done (   0.0 sec)
  promolecular density results
     # of electrons  =     39.000004070
     EX              =    -90.119442506
     EC              =     -0.694957543
     EX+EC           =    -90.814400049
Transforming the Hamiltonian                       ... done (   0.0 sec)
Diagonalizing the Hamiltonian                      ... done (   0.0 sec)
Back transforming the eigenvectors                 ... done (   0.0 sec)
Now organizing SCF variables                       ... done
                      ------------------
                      INITIAL GUESS DONE (   0.3 sec)
                      ------------------
--------------
SCF ITERATIONS
--------------
ITER       Energy         Delta-E        Max-DP      RMS-DP      [F,P]     Damp
               ***  Starting incremental Fock matrix formation  ***
  0  -1879.1710305747   0.000000000000 0.09171404  0.00199757  0.5868508 0.7000
  1  -1879.3372267381  -0.166196163471 0.04735273  0.00086366  0.1500669 0.7000
                               ***Turning on DIIS***
  2  -1879.3711931075  -0.033966369361 0.10030990  0.00129723  0.0693519 0.0000
  3  -1879.5055804488  -0.134387341259 0.02049059  0.00034722  0.0202495 0.0000
  4  -1879.5086677123  -0.003087263491 0.01314697  0.00017755  0.0083643 0.0000
  5  -1879.5090480774  -0.000380365159 0.00936068  0.00008432  0.0081515 0.0000
  6  -1879.5091645475  -0.000116470082 0.00525558  0.00004879  0.0039198 0.0000
  7  -1879.5092051050  -0.000040557550 0.00476914  0.00004506  0.0009924 0.0000
  8  -1879.5092180053  -0.000012900209 0.00061537  0.00000687  0.0006410 0.0000
  9  -1879.5092186470  -0.000000641766 0.00012495  0.00000197  0.0001593 0.0000
                 **** Energy Check signals convergence ****

               *****************************************************
               *                     SUCCESS                       *
               *           SCF CONVERGED AFTER  10 CYCLES          *
               *****************************************************


----------------
TOTAL SCF ENERGY
----------------

Total Energy       :        -1879.50921872 Eh          -51144.04595 eV

Components:
Nuclear Repulsion  :           79.64691484 Eh            2167.30274 eV
Electronic Energy  :        -1959.15613356 Eh          -53311.34869 eV
One Electron Energy:        -2781.75228836 Eh          -75695.32804 eV
Two Electron Energy:          822.59615480 Eh           22383.97935 eV

Virial components:
Potential Energy   :        -3757.16381719 Eh         -102237.62513 eV
Kinetic Energy     :         1877.65459847 Eh           51093.57917 eV
Virial Ratio       :            2.00098773


DFT components:
N(Alpha)           :       20.000015104041 electrons
N(Beta)            :       19.000016800223 electrons
N(Total)           :       39.000031904264 electrons
E(X)               :      -80.123039899255 Eh       
E(C)               :       -1.730786685900 Eh       
E(XC)              :      -81.853826585155 Eh       
DFET-embed. en.    :        0.000000000000 Eh       

---------------
SCF CONVERGENCE
---------------

  Last Energy change         ...   -7.5491e-08  Tolerance :   1.0000e-06
  Last MAX-Density change    ...    4.3585e-05  Tolerance :   1.0000e-05
  Last RMS-Density change    ...    6.3787e-07  Tolerance :   1.0000e-06
  Last DIIS Error            ...    3.1042e-05  Tolerance :   1.0000e-06

             **** THE GBW FILE WAS UPDATED (56_ZnF.gbw) ****
             **** DENSITY FILE WAS UPDATED (56_ZnF.scfp) ****
             **** ENERGY FILE WAS UPDATED (56_ZnF.en.tmp) ****
----------------------
UHF SPIN CONTAMINATION
----------------------

Warning: in a DFT calculation there is little theoretical justification to 
         calculate <S**2> as in Hartree-Fock theory. We will do it anyways
         but you should keep in mind that the values have only limited relevance

Expectation value of <S**2>     :     0.754866
Ideal value S*(S+1) for S=0.5   :     0.750000
Deviation                       :     0.004866

             **** THE GBW FILE WAS UPDATED (56_ZnF.gbw) ****
             **** DENSITY FILE WAS UPDATED (56_ZnF.scfp) ****
----------------
ORBITAL ENERGIES
----------------
                 SPIN UP ORBITALS
  NO   OCC          E(Eh)            E(eV) 
   0   1.0000    -346.813886     -9437.2856 
   1   1.0000     -42.035743     -1143.8507 
   2   1.0000     -37.021726     -1007.4124 
   3   1.0000     -37.021726     -1007.4124 
   4   1.0000     -37.019800     -1007.3600 
   5   1.0000     -24.442925      -665.1258 
   6   1.0000      -4.825845      -131.3179 
   7   1.0000      -3.193891       -86.9102 
   8   1.0000      -3.193891       -86.9102 
   9   1.0000      -3.186302       -86.7037 
  10   1.0000      -1.055435       -28.7198 
  11   1.0000      -0.463862       -12.6223 
  12   1.0000      -0.451216       -12.2782 
  13   1.0000      -0.451216       -12.2782 
  14   1.0000      -0.451208       -12.2780 
  15   1.0000      -0.451205       -12.2779 
  16   1.0000      -0.354502        -9.6465 
  17   1.0000      -0.311092        -8.4653 
  18   1.0000      -0.311092        -8.4653 
  19   1.0000      -0.230908        -6.2833 
  20   0.0000      -0.051349        -1.3973 
  21   0.0000      -0.051348        -1.3973 
  22   0.0000       0.013633         0.3710 
  23   0.0000       0.039300         1.0694 
  24   0.0000       0.058750         1.5987 
  25   0.0000       0.058752         1.5987 
  26   0.0000       0.076673         2.0864 
  27   0.0000       0.148027         4.0280 
  28   0.0000       0.178350         4.8532 
  29   0.0000       0.178356         4.8533 
  30   0.0000       0.180616         4.9148 
  31   0.0000       0.185834         5.0568 
  32   0.0000       0.185834         5.0568 
  33   0.0000       0.228590         6.2203 
  34   0.0000       0.228591         6.2203 
  35   0.0000       0.242686         6.6038 
  36   0.0000       0.274405         7.4669 
  37   0.0000       0.274407         7.4670 
  38   0.0000       0.295442         8.0394 
  39   0.0000       0.456936        12.4339 
  40   0.0000       0.721341        19.6287 
  41   0.0000       0.732957        19.9448 
  42   0.0000       0.733137        19.9497 
  43   0.0000       0.751706        20.4550 
  44   0.0000       0.751706        20.4550 
  45   0.0000       0.789955        21.4958 
  46   0.0000       0.790219        21.5030 
  47   0.0000       0.845824        23.0160 
  48   0.0000       0.902086        24.5470 
  49   0.0000       0.921440        25.0737 
  50   0.0000       0.921441        25.0737 
  51   0.0000       0.988723        26.9045 
  52   0.0000       0.988724        26.9045 
  53   0.0000       1.071630        29.1605 
  54   0.0000       1.071630        29.1605 
  55   0.0000       1.115461        30.3532 
  56   0.0000       1.436677        39.0940 
  57   0.0000       1.613841        43.9148 
  58   0.0000       1.613841        43.9148 
  59   0.0000       1.656796        45.0837 
  60   0.0000       1.657011        45.0896 
  61   0.0000       1.817518        49.4572 
  62   0.0000       1.918955        52.2174 
  63   0.0000       1.918955        52.2174 
  64   0.0000       2.314680        62.9856 
  65   0.0000       2.622778        71.3694 
  66   0.0000       2.626693        71.4759 
  67   0.0000       2.628336        71.5207 
  68   0.0000       2.711356        73.7798 
  69   0.0000       2.711356        73.7798 
  70   0.0000       2.743320        74.6495 
  71   0.0000       2.743463        74.6534 
  72   0.0000       2.769850        75.3715 
  73   0.0000       2.769850        75.3715 
  74   0.0000       2.782372        75.7122 
  75   0.0000       2.782372        75.7122 
  76   0.0000       2.884611        78.4942 
  77   0.0000       2.885258        78.5119 
  78   0.0000       2.984054        81.2002 
  79   0.0000       3.372626        91.7738 
  80   0.0000       3.372626        91.7738 
  81   0.0000       3.943417       107.3058 
  82   0.0000       4.236154       115.2716 
  83   0.0000       4.323681       117.6534 
  84   0.0000       4.323682       117.6534 
  85   0.0000       4.829880       131.4277 
  86   0.0000       4.829880       131.4277 
  87   0.0000       4.938759       134.3905 
  88   0.0000       4.938759       134.3905 
  89   0.0000       4.997210       135.9810 
  90   0.0000       5.004745       136.1860 
  91   0.0000       5.004766       136.1866 
  92   0.0000       5.078907       138.2041 
  93   0.0000       5.215180       141.9123 
  94   0.0000       5.215180       141.9123 
  95   0.0000       5.646875       153.6593 
  96   0.0000       7.395586       201.2441 
  97   0.0000       7.395688       201.2469 
  98   0.0000       7.398504       201.3235 
  99   0.0000       7.398504       201.3235 
 100   0.0000       7.402905       201.4433 
 101   0.0000       7.402907       201.4434 
 102   0.0000       7.469233       203.2482 
 103   0.0000       7.469233       203.2482 
 104   0.0000       7.583300       206.3521 
 105   0.0000       8.553528       232.7533 
 106   0.0000       8.553528       232.7533 
 107   0.0000       8.606369       234.1912 
 108   0.0000       8.607275       234.2159 
 109   0.0000       8.874187       241.4789 
 110   0.0000       8.875667       241.5192 
 111   0.0000       8.906336       242.3537 
 112   0.0000       8.906336       242.3537 
 113   0.0000       8.909824       242.4486 
 114   0.0000       8.963105       243.8985 
 115   0.0000       8.963105       243.8985 
 116   0.0000       9.118427       248.1250 
 117   0.0000      10.231242       278.4063 
 118   0.0000      10.231305       278.4080 
 119   0.0000      10.346310       281.5374 
 120   0.0000      10.346310       281.5374 
 121   0.0000      10.674777       290.4754 
 122   0.0000      13.114820       356.8724 
 123   0.0000      15.975065       434.7036 
 124   0.0000      15.975065       434.7036 
 125   0.0000      16.008110       435.6028 
 126   0.0000      16.008125       435.6032 
 127   0.0000      16.120173       438.6522 
 128   0.0000      16.120173       438.6522 
 129   0.0000      16.209112       441.0724 
 130   0.0000      19.867556       540.6237 
 131   0.0000      19.867568       540.6240 
 132   0.0000      19.871802       540.7392 
 133   0.0000      19.871802       540.7392 
 134   0.0000      19.884179       541.0760 
 135   0.0000      19.884245       541.0778 
 136   0.0000      19.962119       543.1969 
 137   0.0000      19.962119       543.1969 
 138   0.0000      20.058048       545.8072 

                 SPIN DOWN ORBITALS
  NO   OCC          E(Eh)            E(eV) 
   0   1.0000    -346.812073     -9437.2363 
   1   1.0000     -42.034206     -1143.8089 
   2   1.0000     -37.020134     -1007.3691 
   3   1.0000     -37.020134     -1007.3691 
   4   1.0000     -37.018807     -1007.3330 
   5   1.0000     -24.436985      -664.9642 
   6   1.0000      -4.828027      -131.3773 
   7   1.0000      -3.195197       -86.9457 
   8   1.0000      -3.195197       -86.9457 
   9   1.0000      -3.187729       -86.7425 
  10   1.0000      -1.047099       -28.4930 
  11   1.0000      -0.454222       -12.3600 
  12   1.0000      -0.446995       -12.1633 
  13   1.0000      -0.446995       -12.1633 
  14   1.0000      -0.446361       -12.1461 
  15   1.0000      -0.446358       -12.1460 
  16   1.0000      -0.330867        -9.0034 
  17   1.0000      -0.309666        -8.4264 
  18   1.0000      -0.309666        -8.4264 
  19   0.0000      -0.153900        -4.1878 
  20   0.0000      -0.036870        -1.0033 
  21   0.0000      -0.024428        -0.6647 
  22   0.0000      -0.024427        -0.6647 
  23   0.0000       0.019853         0.5402 
  24   0.0000       0.033855         0.9212 
  25   0.0000       0.033856         0.9213 
  26   0.0000       0.059915         1.6304 
  27   0.0000       0.118229         3.2172 
  28   0.0000       0.167516         4.5583 
  29   0.0000       0.167572         4.5599 
  30   0.0000       0.174315         4.7434 
  31   0.0000       0.174316         4.7434 
  32   0.0000       0.175360         4.7718 
  33   0.0000       0.205106         5.5812 
  34   0.0000       0.205107         5.5812 
  35   0.0000       0.235417         6.4060 
  36   0.0000       0.256600         6.9824 
  37   0.0000       0.256601         6.9825 
  38   0.0000       0.280594         7.6354 
  39   0.0000       0.451797        12.2940 
  40   0.0000       0.696647        18.9567 
  41   0.0000       0.712579        19.3903 
  42   0.0000       0.712623        19.3914 
  43   0.0000       0.735724        20.0201 
  44   0.0000       0.735725        20.0201 
  45   0.0000       0.795870        21.6567 
  46   0.0000       0.796126        21.6637 
  47   0.0000       0.841341        22.8940 
  48   0.0000       0.892588        24.2885 
  49   0.0000       0.905964        24.6525 
  50   0.0000       0.905965        24.6526 
  51   0.0000       0.981216        26.7003 
  52   0.0000       0.981217        26.7003 
  53   0.0000       1.077911        29.3314 
  54   0.0000       1.077911        29.3314 
  55   0.0000       1.108701        30.1693 
  56   0.0000       1.439604        39.1736 
  57   0.0000       1.621713        44.1290 
  58   0.0000       1.621713        44.1290 
  59   0.0000       1.663670        45.2708 
  60   0.0000       1.663972        45.2790 
  61   0.0000       1.823363        49.6162 
  62   0.0000       1.919546        52.2335 
  63   0.0000       1.919546        52.2335 
  64   0.0000       2.317311        63.0572 
  65   0.0000       2.609944        71.0202 
  66   0.0000       2.630638        71.5833 
  67   0.0000       2.632390        71.6310 
  68   0.0000       2.717043        73.9345 
  69   0.0000       2.717043        73.9345 
  70   0.0000       2.730646        74.3047 
  71   0.0000       2.730799        74.3088 
  72   0.0000       2.770048        75.3768 
  73   0.0000       2.770048        75.3768 
  74   0.0000       2.779282        75.6281 
  75   0.0000       2.779282        75.6281 
  76   0.0000       2.889407        78.6248 
  77   0.0000       2.890633        78.6581 
  78   0.0000       2.992538        81.4311 
  79   0.0000       3.381029        92.0025 
  80   0.0000       3.381029        92.0025 
  81   0.0000       3.949874       107.4815 
  82   0.0000       4.210841       114.5828 
  83   0.0000       4.312735       117.3555 
  84   0.0000       4.312735       117.3555 
  85   0.0000       4.832871       131.5091 
  86   0.0000       4.832871       131.5091 
  87   0.0000       4.937281       134.3502 
  88   0.0000       4.937281       134.3502 
  89   0.0000       4.992656       135.8571 
  90   0.0000       4.998992       136.0295 
  91   0.0000       4.999061       136.0314 
  92   0.0000       5.090194       138.5112 
  93   0.0000       5.205133       141.6389 
  94   0.0000       5.205133       141.6389 
  95   0.0000       5.637058       153.3922 
  96   0.0000       7.408335       201.5910 
  97   0.0000       7.408435       201.5938 
  98   0.0000       7.412534       201.7053 
  99   0.0000       7.412534       201.7053 
 100   0.0000       7.417696       201.8458 
 101   0.0000       7.417758       201.8474 
 102   0.0000       7.484420       203.6614 
 103   0.0000       7.484420       203.6614 
 104   0.0000       7.594350       206.6528 
 105   0.0000       8.552960       232.7379 
 106   0.0000       8.552960       232.7379 
 107   0.0000       8.623423       234.6553 
 108   0.0000       8.624171       234.6756 
 109   0.0000       8.870668       241.3832 
 110   0.0000       8.872225       241.4255 
 111   0.0000       8.933878       243.1032 
 112   0.0000       8.933878       243.1032 
 113   0.0000       8.940338       243.2790 
 114   0.0000       8.987748       244.5691 
 115   0.0000       8.987748       244.5691 
 116   0.0000       9.142350       248.7760 
 117   0.0000      10.217381       278.0291 
 118   0.0000      10.217420       278.0301 
 119   0.0000      10.335012       281.2300 
 120   0.0000      10.335012       281.2300 
 121   0.0000      10.671393       290.3834 
 122   0.0000      13.113946       356.8486 
 123   0.0000      15.985640       434.9914 
 124   0.0000      15.985640       434.9914 
 125   0.0000      16.013380       435.7462 
 126   0.0000      16.013386       435.7464 
 127   0.0000      16.124070       438.7582 
 128   0.0000      16.124070       438.7582 
 129   0.0000      16.211529       441.1381 
 130   0.0000      19.882090       541.0192 
 131   0.0000      19.882103       541.0195 
 132   0.0000      19.885211       541.1041 
 133   0.0000      19.885211       541.1041 
 134   0.0000      19.896438       541.4096 
 135   0.0000      19.896524       541.4119 
 136   0.0000      19.973719       543.5125 
 137   0.0000      19.973719       543.5125 
 138   0.0000      20.069454       546.1176 

                    ********************************
                    * MULLIKEN POPULATION ANALYSIS *
                    ********************************

--------------------------------------------
MULLIKEN ATOMIC CHARGES AND SPIN POPULATIONS
--------------------------------------------
   0 Zn:    0.639392    0.918934
   1 F :   -0.639392    0.081066
Sum of atomic charges         :    0.0000000
Sum of atomic spin populations:    1.0000000

-----------------------------------------------------
MULLIKEN REDUCED ORBITAL CHARGES AND SPIN POPULATIONS
-----------------------------------------------------
CHARGE
  0 Zns       :     7.076225  s :     7.076225
      pz      :     4.196676  p :    12.287266
      px      :     4.045295
      py      :     4.045295
      dz2     :     1.975602  d :     9.989223
      dxz     :     2.006858
      dyz     :     2.006858
      dx2y2   :     1.999953
      dxy     :     1.999952
      f0      :     0.003772  f :     0.007806
      f+1     :     0.002007
      f-1     :     0.002007
      f+2     :     0.000009
      f-2     :     0.000009
      f+3     :     0.000000
      f-3     :     0.000000
      g0      :     0.000051  g :     0.000088
      g+1     :     0.000019
      g-1     :     0.000019
      g+2     :     0.000000
      g-2     :     0.000000
      g+3     :     0.000000
      g-3     :     0.000000
      g+4     :     0.000000
      g-4     :     0.000000
  1 F s       :     4.002394  s :     4.002394
      pz      :     1.742768  p :     5.627440
      px      :     1.942336
      py      :     1.942336
      dz2     :     0.002197  d :     0.008350
      dxz     :     0.003064
      dyz     :     0.003064
      dx2y2   :     0.000012
      dxy     :     0.000013
      f0      :     0.000316  f :     0.001208
      f+1     :     0.000420
      f-1     :     0.000420
      f+2     :     0.000025
      f-2     :     0.000026
      f+3     :     0.000000
      f-3     :     0.000000

SPIN
  0 Zns       :     0.747636  s :     0.747636
      pz      :     0.149316  p :     0.163972
      px      :     0.007328
      py      :     0.007328
      dz2     :     0.012673  d :     0.007176
      dxz     :    -0.002826
      dyz     :    -0.002826
      dx2y2   :     0.000077
      dxy     :     0.000078
      f0      :     0.000290  f :     0.000149
      f+1     :    -0.000079
      f-1     :    -0.000079
      f+2     :     0.000009
      f-2     :     0.000009
      f+3     :     0.000000
      f-3     :     0.000000
      g0      :     0.000002  g :     0.000000
      g+1     :    -0.000001
      g-1     :    -0.000001
      g+2     :    -0.000000
      g-2     :    -0.000000
      g+3     :     0.000000
      g-3     :     0.000000
      g+4     :     0.000000
      g-4     :     0.000000
  1 F s       :    -0.006211  s :    -0.006211
      pz      :     0.097612  p :     0.089394
      px      :    -0.004109
      py      :    -0.004109
      dz2     :    -0.001314  d :    -0.002093
      dxz     :    -0.000313
      dyz     :    -0.000313
      dx2y2   :    -0.000077
      dxy     :    -0.000077
      f0      :    -0.000005  f :    -0.000023
      f+1     :     0.000000
      f-1     :     0.000000
      f+2     :    -0.000009
      f-2     :    -0.000009
      f+3     :    -0.000000
      f-3     :    -0.000000


                     *******************************
                     * LOEWDIN POPULATION ANALYSIS *
                     *******************************

-------------------------------------------
LOEWDIN ATOMIC CHARGES AND SPIN POPULATIONS
-------------------------------------------
   0 Zn:    0.523266    0.824274
   1 F :   -0.523266    0.175726

----------------------------------------------------
LOEWDIN REDUCED ORBITAL CHARGES AND SPIN POPULATIONS
----------------------------------------------------
CHARGE
  0 Zns       :     6.827532  s :     6.827532
      pz      :     4.345832  p :    12.470987
      px      :     4.062578
      py      :     4.062578
      dz2     :     2.071879  d :    10.132682
      dxz     :     2.031411
      dyz     :     2.031411
      dx2y2   :     1.998991
      dxy     :     1.998990
      f0      :     0.025051  f :     0.045223
      f+1     :     0.010072
      f-1     :     0.010072
      f+2     :     0.000014
      f-2     :     0.000014
      f+3     :     0.000000
      f-3     :     0.000000
      g0      :     0.000178  g :     0.000309
      g+1     :     0.000065
      g-1     :     0.000065
      g+2     :     0.000000
      g-2     :     0.000000
      g+3     :     0.000000
      g-3     :     0.000000
      g+4     :     0.000000
      g-4     :     0.000000
  1 F s       :     3.813051  s :     3.813051
      pz      :     1.836265  p :     5.583607
      px      :     1.873671
      py      :     1.873671
      dz2     :     0.066197  d :     0.100680
      dxz     :     0.016535
      dyz     :     0.016535
      dx2y2   :     0.000706
      dxy     :     0.000707
      f0      :     0.014015  f :     0.025928
      f+1     :     0.005668
      f-1     :     0.005668
      f+2     :     0.000288
      f-2     :     0.000289
      f+3     :     0.000000
      f-3     :     0.000000

SPIN
  0 Zns       :     0.575536  s :     0.575536
      pz      :     0.221379  p :     0.237253
      px      :     0.007937
      py      :     0.007937
      dz2     :     0.015561  d :     0.008568
      dxz     :    -0.003485
      dyz     :    -0.003485
      dx2y2   :    -0.000011
      dxy     :    -0.000011
      f0      :     0.002897  f :     0.002900
      f+1     :    -0.000012
      f-1     :    -0.000012
      f+2     :     0.000014
      f-2     :     0.000014
      f+3     :     0.000000
      f-3     :     0.000000
      g0      :     0.000021  g :     0.000017
      g+1     :    -0.000002
      g-1     :    -0.000002
      g+2     :    -0.000000
      g-2     :    -0.000000
      g+3     :     0.000000
      g-3     :     0.000000
      g+4     :     0.000000
      g-4     :     0.000000
  1 F s       :     0.039684  s :     0.039684
      pz      :     0.140016  p :     0.132058
      px      :    -0.003979
      py      :    -0.003979
      dz2     :     0.004705  d :     0.003917
      dxz     :    -0.000390
      dyz     :    -0.000390
      dx2y2   :    -0.000004
      dxy     :    -0.000004
      f0      :     0.000201  f :     0.000067
      f+1     :    -0.000069
      f-1     :    -0.000069
      f+2     :     0.000001
      f-2     :     0.000002
      f+3     :    -0.000000
      f-3     :    -0.000000


                      *****************************
                      * MAYER POPULATION ANALYSIS *
                      *****************************

  NA   - Mulliken gross atomic population
  ZA   - Total nuclear charge
  QA   - Mulliken gross atomic charge
  VA   - Mayer's total valence
  BVA  - Mayer's bonded valence
  FA   - Mayer's free valence

  ATOM       NA         ZA         QA         VA         BVA        FA
  0 Zn    29.3606    30.0000     0.6394     1.4505     0.5756     0.8748
  1 F      9.6394     9.0000    -0.6394     0.5827     0.5756     0.0071

  Mayer bond orders larger than 0.100000
B(  0-Zn,  1-F ) :   0.5756 

-------
TIMINGS
-------

Total SCF time: 0 days 0 hours 0 min 2 sec 

Total time                  ....       2.307 sec
Sum of individual times     ....       2.187 sec  ( 94.8%)

Fock matrix formation       ....       1.844 sec  ( 79.9%)
  Split-RI-J                ....       1.374 sec  ( 74.5% of F)
  XC integration            ....       0.403 sec  ( 21.9% of F)
    Basis function eval.    ....       0.048 sec  ( 12.0% of XC)
    Density eval.           ....       0.049 sec  ( 12.2% of XC)
    XC-Functional eval.     ....       0.011 sec  (  2.7% of XC)
    XC-Potential eval.      ....       0.146 sec  ( 36.2% of XC)
Diagonalization             ....       0.054 sec  (  2.4%)
Density matrix formation    ....       0.008 sec  (  0.3%)
Population analysis         ....       0.007 sec  (  0.3%)
Initial guess               ....       0.099 sec  (  4.3%)
Orbital Transformation      ....       0.000 sec  (  0.0%)
Orbital Orthonormalization  ....       0.000 sec  (  0.0%)
DIIS solution               ....       0.019 sec  (  0.8%)
Grid generation             ....       0.156 sec  (  6.8%)


-------------------------------------------------------------------------------
                          DFT DISPERSION CORRECTION                            
                                                                               
                              DFTD3 V3.1  Rev 1                                
                          USING Becke-Johnson damping                          
-------------------------------------------------------------------------------
The SCAN functional is recognized
Active option DFTDOPT                   ...         4   

molecular C6(AA) [au] = 294.521181 


            DFT-D V3
 parameters
 s6 scaling factor         :     1.0000 
 a1 scaling factor         :     0.5380 
 s8 scaling factor         :     0.0000 
 a2 scaling factor         :     5.4200 
 ad hoc parameters k1-k3   :    16.0000     1.3333    -4.0000 

 Edisp/kcal,au: -0.048058038009  -0.000076585350 
 E6   /kcal   :  -0.048058038 
 E8   /kcal   :  -0.000000000 
 % E8         :   0.000000000 

-------------------------   ----------------
Dispersion correction           -0.000076585
-------------------------   ----------------


-------------------------   --------------------
FINAL SINGLE POINT ENERGY     -1879.509295307859
-------------------------   --------------------


                            ***************************************
                            *     ORCA property calculations      *
                            ***************************************

                                    ---------------------
                                    Active property flags
                                    ---------------------
   (+) Dipole Moment


------------------------------------------------------------------------------
                       ORCA ELECTRIC PROPERTIES CALCULATION
------------------------------------------------------------------------------

Dipole Moment Calculation                       ... on
Quadrupole Moment Calculation                   ... off
Polarizability Calculation                      ... off
GBWName                                         ... 56_ZnF.gbw
Electron density file                           ... 56_ZnF.scfp
The origin for moment calculation is the CENTER OF MASS  = ( 0.000000,  0.000000  0.958007)

-------------
DIPOLE MOMENT
-------------
                                X             Y             Z
Electronic contribution:      0.00000       0.00000      -1.89228
Nuclear contribution   :      0.00000       0.00000       0.74245
                        -----------------------------------------
Total Dipole Moment    :      0.00000       0.00000      -1.14983
                        -----------------------------------------
Magnitude (a.u.)       :      1.14983
Magnitude (Debye)      :      2.92262



--------------------
Rotational spectrum 
--------------------
 
Rotational constants in cm-1:     0.000000     0.355862     0.355862 
Rotational constants in MHz :     0.000000 10668.470416 10668.470416 

 Dipole components along the rotational axes: 
x,y,z [a.u.] :    -1.149825     0.000000     0.000000 
x,y,z [Debye]:    -2.922623     0.000001     0.000000 

 

Timings for individual modules:

Sum of individual times         ...        5.425 sec (=   0.090 min)
GTO integral calculation        ...        2.787 sec (=   0.046 min)  51.4 %
SCF iterations                  ...        2.639 sec (=   0.044 min)  48.6 %
                             ****ORCA TERMINATED NORMALLY****
TOTAL RUN TIME: 0 days 0 hours 0 minutes 5 seconds 989 msec
