
                                 *****************
                                 * O   R   C   A *
                                 *****************

           --- An Ab Initio, DFT and Semiempirical electronic structure package ---

                  #######################################################
                  #                        -***-                        #
                  #          Department of theory and spectroscopy      #
                  #               Directorship: Frank Neese             #
                  #        Max Planck Institute fuer Kohlenforschung    #
                  #                Kaiser Wilhelm Platz 1               #
                  #                 D-45470 Muelheim/Ruhr               #
                  #                      Germany                        #
                  #                                                     #
                  #                  All rights reserved                #
                  #                        -***-                        #
                  #######################################################


                         Program Version 4.2.0 -  RELEASE  -


 With contributions from (in alphabetic order):
   Daniel Aravena         : Magnetic Suceptibility
   Michael Atanasov       : Ab Initio Ligand Field Theory (pilot matlab implementation)
   Alexander A. Auer      : GIAO ZORA, VPT2
   Ute Becker             : Parallelization
   Giovanni Bistoni       : ED, misc. LED, open-shell LED, HFLED
   Martin Brehm           : Molecular dynamics
   Dmytro Bykov           : SCF Hessian
   Vijay G. Chilkuri      : MRCI spin determinant printing, contributions to CSF-ICE
   Dipayan Datta          : RHF DLPNO-CCSD density
   Achintya Kumar Dutta   : EOM-CC, STEOM-CC
   Dmitry Ganyushin       : Spin-Orbit,Spin-Spin,Magnetic field MRCI
   Miquel Garcia          : C-PCM Hessian, Gaussian charge scheme
   Yang Guo               : DLPNO-NEVPT2, CIM, IAO-localization
   Andreas Hansen         : Spin unrestricted coupled pair/coupled cluster methods
   Benjamin Helmich-Paris : CASSCF linear response (MC-RPA)
   Lee Huntington         : MR-EOM, pCC
   Robert Izsak           : Overlap fitted RIJCOSX, COSX-SCS-MP3, EOM
   Christian Kollmar      : KDIIS, OOCD, Brueckner-CCSD(T), CCSD density
   Simone Kossmann        : Meta GGA functionals, TD-DFT gradient, OOMP2, MP2 Hessian
   Martin Krupicka        : AUTO-CI
   Lucas Lang             : DCDCAS
   Dagmar Lenk            : GEPOL surface, SMD
   Dimitrios Liakos       : Extrapolation schemes; Compound Job, initial MDCI parallelization
   Dimitrios Manganas     : Further ROCIS development; embedding schemes
   Dimitrios Pantazis     : SARC Basis sets
   Taras Petrenko         : DFT Hessian,TD-DFT gradient, ASA, ECA, R-Raman, ABS, FL, XAS/XES, NRVS
   Peter Pinski           : DLPNO-MP2, DLPNO-MP2 Gradient
   Christoph Reimann      : Effective Core Potentials
   Marius Retegan         : Local ZFS, SOC
   Christoph Riplinger    : Optimizer, TS searches, QM/MM, DLPNO-CCSD(T), (RO)-DLPNO pert. Triples
   Tobias Risthaus        : Range-separated hybrids, TD-DFT gradient, RPA, STAB
   Michael Roemelt        : Original ROCIS implementation
   Masaaki Saitow         : Open-shell DLPNO-CCSD energy and density
   Barbara Sandhoefer     : DKH picture change effects
   Avijit Sen             : IP-ROCIS
   Kantharuban Sivalingam : CASSCF convergence, NEVPT2, FIC-MRCI
   Bernardo de Souza      : ESD, SOC TD-DFT
   Georgi Stoychev        : AutoAux, RI-MP2 NMR
   Willem Van den Heuvel  : Paramagnetic NMR
   Boris Wezisla          : Elementary symmetry handling
   Frank Wennmohs         : Technical directorship


 We gratefully acknowledge several colleagues who have allowed us to
 interface, adapt or use parts of their codes:
   Stefan Grimme, W. Hujo, H. Kruse,             : VdW corrections, initial TS optimization,
                  C. Bannwarth                     DFT functionals, gCP, sTDA/sTD-DF
   Ed Valeev, F. Pavosevic, A. Kumar             : LibInt (2-el integral package), F12 methods
   Garnet Chan, S. Sharma, J. Yang, R. Olivares  : DMRG
   Ulf Ekstrom                                   : XCFun DFT Library
   Mihaly Kallay                                 : mrcc  (arbitrary order and MRCC methods)
   Andreas Klamt, Michael Diedenhofen            : otool_cosmo (COSMO solvation model)
   Jiri Pittner, Ondrej Demel                    : Mk-CCSD
   Frank Weinhold                                : gennbo (NPA and NBO analysis)
   Christopher J. Cramer and Donald G. Truhlar   : smd solvation model
   Lars Goerigk                                  : TD-DFT with DH, B97 family of functionals
   V. Asgeirsson, H. Jonsson                     : NEB implementation
   FAccTs GmbH                                   : IRC, NEB, NEB-TS, Multilevel, MM, QM/MM, CI optimization
   S Lehtola, MJT Oliveira, MAL Marques          : LibXC Library


 Your calculation uses the libint2 library for the computation of 2-el integrals
 For citations please refer to: http://libint.valeyev.net

 Your ORCA version has been built with support for libXC version: 4.2.3
 For citations please refer to: https://tddft.org/programs/libxc/

 This ORCA versions uses:
   CBLAS   interface :  Fast vector & matrix operations
   LAPACKE interface :  Fast linear algebra routines
   SCALAPACK package :  Parallel linear algebra routines


Your calculation utilizes the atom-pairwise dispersion correction
with the Becke-Johnson damping scheme (D3BJ)
Cite in your paper:
S.Grimme, S.Ehrlich, L.Goerigk, J Comput Chem, (2011), 32, 1456–1465 
S.Grimme, J.Antony, S.Ehrlich and H.Krieg, J.Chem.Phys., 132, (2010), 154104 
   

----- Orbital basis set information -----
Your calculation utilizes the basis: aug-cc-pVTZ 
    H, B-Ne : Obtained from the ccRepo (grant-hill.group.shef.ac.uk/ccrepo) Feb. 2017
              R. A. Kendall, T. H. Dunning, Jr., R. J. Harrison, J. Chem. Phys. 96, 6796 (1992)
         He : Obtained from the ccRepo (grant-hill.group.shef.ac.uk/ccrepo) Feb. 2017
              D. E. Woon, T. H. Dunning, Jr., J. Chem. Phys. 100, 2975 (1994)
  Li-Be, Na : Obtained from the ccRepo (grant-hill.group.shef.ac.uk/ccrepo) Feb. 2017
              B. P. Prascher, D. E. Woon, K. A. Peterson, T. H. Dunning, Jr., A. K. Wilson, Theor. Chem. Acc. 128, 69 (2011)
         Mg : Obtained from the Peterson Research Group Website (tyr0.chem.wsu.edu/~kipeters) Feb. 2017
              B. P. Prascher, D. E. Woon, K. A. Peterson, T. H. Dunning, Jr., A. K. Wilson, Theor. Chem. Acc. 128, 69 (2011)
      Al-Ar : Obtained from the ccRepo (grant-hill.group.shef.ac.uk/ccrepo) Feb. 2017
              D. E. Woon, T. H. Dunning, Jr., J. Chem. Phys. 98, 1358 (1993)
      Sc-Zn : Obtained from the ccRepo (grant-hill.group.shef.ac.uk/ccrepo) Feb. 2017
              N. B. Balabanov, K. A. Peterson, J. Chem. Phys. 123, 064107 (2005)
              N. B. Balabanov, K. A. Peterson, J. Chem. Phys. 125, 074110 (2006)
      Ga-Kr : Obtained from the ccRepo (grant-hill.group.shef.ac.uk/ccrepo) Feb. 2017
              A. K. Wilson, D. E. Woon, K. A. Peterson, T. H. Dunning, Jr., J. Chem. Phys. 110, 7667 (1999)
     Ag, Au : Obtained from the Peterson Research Group Website (tyr0.chem.wsu.edu/~kipeters) Feb. 2017
              K. A. Peterson, C. Puzzarini, Theor. Chem. Acc. 114, 283 (2005)

----- AuxJ basis set information -----
Your calculation utilizes the auxiliary basis: def2/J
   F. Weigend, Phys. Chem. Chem. Phys. 8, 1057 (2006).

================================================================================
                                        WARNINGS
                       Please study these warnings very carefully!
================================================================================


WARNING: your system is open-shell and RHF/RKS was chosen
  ===> : WILL SWITCH to UHF/UKS


WARNING: The SCAN functional is very grid-sensitive!
         Use at least GRID5 and a higher intacc

INFO   : the flag for use of LIBINT has been found!

================================================================================
                                       INPUT FILE
================================================================================
NAME = 58_ZnBr.in
|  1> #
|  2> # 58_ZnBr scanfunc/aug-cc-pvtz
|  3> #
|  4> ! scanfunc d3bj aug-cc-pvtz def2/j grid4 nofinalgrid
|  5> 
|  6> *xyz 0 2
|  7>   Zn  0.00000000000000      0.00000000000000     -0.15390624723259
|  8>   Br  0.00000000000000      0.00000000000000      2.15390624723258
|  9> *
| 10> 
| 11> %pal
| 12> nprocs 24
| 13> end
| 14> 
| 15> 
| 16>                          ****END OF INPUT****
================================================================================

                       ****************************
                       * Single Point Calculation *
                       ****************************

---------------------------------
CARTESIAN COORDINATES (ANGSTROEM)
---------------------------------
  Zn     0.000000    0.000000   -0.153906
  Br     0.000000    0.000000    2.153906

----------------------------
CARTESIAN COORDINATES (A.U.)
----------------------------
  NO LB      ZA    FRAG     MASS         X           Y           Z
   0 Zn   30.0000    0    65.380    0.000000    0.000000   -0.290841
   1 Br   35.0000    0    79.900    0.000000    0.000000    4.070293

--------------------------------
INTERNAL COORDINATES (ANGSTROEM)
--------------------------------
 Zn     0   0   0     0.000000000000     0.00000000     0.00000000
 Br     1   0   0     2.307812494465     0.00000000     0.00000000

---------------------------
INTERNAL COORDINATES (A.U.)
---------------------------
 Zn     0   0   0     0.000000000000     0.00000000     0.00000000
 Br     1   0   0     4.361133582981     0.00000000     0.00000000

---------------------
BASIS SET INFORMATION
---------------------
There are 2 groups of distinct atoms

 Group   1 Type Zn  : 116s77p23d3f2g contracted to 8s7p5d3f2g pattern {19191919191911/151515151511/77711/111/11}
 Group   2 Type Br  : 75s36p10d2f contracted to 7s6p4d2f pattern {18181818111/111111111/7111/11}

Atom   0Zn   basis set group =>   1
Atom   1Br   basis set group =>   2
---------------------------------
AUXILIARY/J BASIS SET INFORMATION
---------------------------------
There are 2 groups of distinct atoms

 Group   1 Type Zn  : 19s5p5d3f3g contracted to 8s5p5d2f3g pattern {121111111/11111/11111/21/111}
 Group   2 Type Br  : 19s5p5d3f1g contracted to 8s4p3d2f1g pattern {121111111/2111/311/21/1}

Atom   0Zn   basis set group =>   1
Atom   1Br   basis set group =>   2


           ************************************************************
           *        Program running with 24 parallel MPI-processes    *
           *              working on a common directory               *
           ************************************************************
------------------------------------------------------------------------------
                           ORCA GTO INTEGRAL CALCULATION
                           -- RI-GTO INTEGRALS CHOSEN --
------------------------------------------------------------------------------

                         BASIS SET STATISTICS AND STARTUP INFO

Gaussian basis set:
 # of primitive gaussian shells          ...  344
 # of primitive gaussian functions       ...  748
 # of contracted shells                  ...   44
 # of contracted basis functions         ...  152
 Highest angular momentum                ...    4
 Maximum contraction depth               ...   19
Auxiliary gaussian basis set:
 # of primitive gaussian shells          ...   68
 # of primitive gaussian functions       ...  196
 # of contracted shells                  ...   41
 # of contracted aux-basis functions     ...  147
 Highest angular momentum                ...    4
 Maximum contraction depth               ...   12
Ratio of auxiliary to basis functions    ...  0.97
Integral package used                  ... LIBINT
 One Electron integrals                  ... done
 Ordering auxiliary basis shells         ... done
 Integral threshhold             Thresh  ...  1.000e-10
 Primitive cut-off               TCut    ...  1.000e-11
 Pre-screening matrix                    ... done
 Shell pair data                         ... 
 Ordering of the shell pairs             ... done (   0.000 sec) 990 of 990 pairs
 Determination of significant pairs      ... done (   0.000 sec)
 Creation of shell pair data             ... done (   0.002 sec)
 Storage of shell pair data              ... done (   0.008 sec)
 Shell pair data done in (   0.010 sec)
 Computing two index integrals           ... done
 Cholesky decomposition of the V-matrix  ... done


Timings:
 Total evaluation time                   ...   3.968 sec (  0.066 min)
 One electron matrix time                ...   0.065 sec (  0.001 min) =  1.6%
 Schwartz matrix evaluation time         ...   3.867 sec (  0.064 min) = 97.5%
 Two index repulsion integral time       ...   0.001 sec (  0.000 min) =  0.0%
 Cholesky decomposition of V             ...   0.001 sec (  0.000 min) =  0.0%
 Three index repulsion integral time     ...   0.000 sec (  0.000 min) =  0.0%



           ************************************************************
           *        Program running with 24 parallel MPI-processes    *
           *              working on a common directory               *
           ************************************************************
-------------------------------------------------------------------------------
                                 ORCA SCF
-------------------------------------------------------------------------------

------------
SCF SETTINGS
------------
Hamiltonian:
 Density Functional     Method          .... DFT(GTOs)
 Exchange Functional    Exchange        .... SCAN
 Correlation Functional Correlation     .... SCAN
 Gradients option       PostSCFGGA      .... off
   Density functional embedding theory  .... OFF
   NL short-range parameter             ....  6.400000
 RI-approximation to the Coulomb term is turned on
   Number of auxiliary basis functions  .... 147


General Settings:
 Integral files         IntName         .... 58_ZnBr
 Hartree-Fock type      HFTyp           .... UHF
 Total Charge           Charge          ....    0
 Multiplicity           Mult            ....    2
 Number of Electrons    NEL             ....   65
 Basis Dimension        Dim             ....  152
 Nuclear Repulsion      ENuc            ....    240.7630906096 Eh

Convergence Acceleration:
 DIIS                   CNVDIIS         .... on
   Start iteration      DIISMaxIt       ....    12
   Startup error        DIISStart       ....  0.200000
   # of expansion vecs  DIISMaxEq       ....     5
   Bias factor          DIISBfac        ....   1.050
   Max. coefficient     DIISMaxC        ....  10.000
 Newton-Raphson         CNVNR           .... off
 SOSCF                  CNVSOSCF        .... off
 Level Shifting         CNVShift        .... on
   Level shift para.    LevelShift      ....    0.2500
   Turn off err/grad.   ShiftErr        ....    0.0010
 Zerner damping         CNVZerner       .... off
 Static damping         CNVDamp         .... on
   Fraction old density DampFac         ....    0.7000
   Max. Damping (<1)    DampMax         ....    0.9800
   Min. Damping (>=0)   DampMin         ....    0.0000
   Turn off err/grad.   DampErr         ....    0.1000
 Fernandez-Rico         CNVRico         .... off

SCF Procedure:
 Maximum # iterations   MaxIter         ....   125
 SCF integral mode      SCFMode         .... Direct
   Integral package                     .... LIBINT
 Reset frequency        DirectResetFreq ....    20
 Integral Threshold     Thresh          ....  1.000e-10 Eh
 Primitive CutOff       TCut            ....  1.000e-11 Eh

Convergence Tolerance:
 Convergence Check Mode ConvCheckMode   .... Total+1el-Energy
 Convergence forced     ConvForced      .... 0
 Energy Change          TolE            ....  1.000e-06 Eh
 1-El. energy change                    ....  1.000e-03 Eh
 DIIS Error             TolErr          ....  1.000e-06


Diagonalization of the overlap matrix:
Smallest eigenvalue                        ... 2.167e-04
Time for diagonalization                   ...    0.005 sec
Threshold for overlap eigenvalues          ... 1.000e-08
Number of eigenvalues below threshold      ... 0
Time for construction of square roots      ...    0.003 sec
Total time needed                          ...    0.007 sec

-------------------
DFT GRID GENERATION
-------------------

General Integration Accuracy     IntAcc      ...  4.670
Radial Grid Type                 RadialGrid  ... Gauss-Chebyshev
Angular Grid (max. acc.)         AngularGrid ... Lebedev-302
Angular grid pruning method      GridPruning ... 3 (G Style)
Weight generation scheme         WeightScheme... Becke
Basis function cutoff            BFCut       ...    1.0000e-10
Integration weight cutoff        WCut        ...    1.0000e-14
Grids for H and He will be reduced by one unit

# of grid points (after initial pruning)     ...  19256 (   0.0 sec)
# of grid points (after weights+screening)   ...  19230 (   0.0 sec)
nearest neighbour list constructed           ...    0.0 sec
Grid point re-assignment to atoms done       ...    0.0 sec
Grid point division into batches done        ...    0.1 sec
Reduced shell lists constructed in    0.1 sec

Total number of grid points                  ...    19230
Total number of batches                      ...      301
Average number of points per batch           ...       63
Average number of grid points per atom       ...     9615
Average number of shells per batch           ...    14.00 (31.82%)
Average number of basis functions per batch  ...    31.86 (20.96%)
Average number of large shells per batch     ...     7.86 (56.12%)
Average number of large basis fcns per batch ...    17.86 (56.05%)
Maximum spatial batch extension              ...  22.45, 22.17, 16.62 au
Average spatial batch extension              ...   0.78,  0.77,  0.63 au

Time for grid setup =    0.204 sec

------------------------------
INITIAL GUESS: MODEL POTENTIAL
------------------------------
Loading Hartree-Fock densities                     ... done
Calculating cut-offs                               ... done
Setting up the integral package                    ... done
Initializing the effective Hamiltonian             ... done
Starting the Coulomb interaction                   ... done (   0.0 sec)
Reading the grid                                   ... done
Mapping shells                                     ... done
Starting the XC term evaluation                    ... done (   0.0 sec)
  promolecular density results
     # of electrons  =     65.000004919
     EX              =   -180.958760611
     EC              =     -1.193174364
     EX+EC           =   -182.151934975
Transforming the Hamiltonian                       ... done (   0.0 sec)
Diagonalizing the Hamiltonian                      ... done (   0.0 sec)
Back transforming the eigenvectors                 ... done (   0.0 sec)
Now organizing SCF variables                       ... done
                      ------------------
                      INITIAL GUESS DONE (   0.3 sec)
                      ------------------
--------------
SCF ITERATIONS
--------------
ITER       Energy         Delta-E        Max-DP      RMS-DP      [F,P]     Damp
               ***  Starting incremental Fock matrix formation  ***
  0  -4353.9671245773   0.000000000000 0.08373524  0.00164355  0.5221192 0.7000
  1  -4354.0694751468  -0.102350569481 0.05177012  0.00083961  0.1475058 0.7000
                               ***Turning on DIIS***
  2  -4354.1094748170  -0.039999670240 0.12994804  0.00155402  0.0702839 0.0000
  3  -4354.1735750730  -0.064100256001 0.03471989  0.00043057  0.0596090 0.0000
  4  -4354.1903716342  -0.016796561151 0.01449011  0.00018521  0.0184007 0.0000
  5  -4354.1918867662  -0.001515132011 0.00733552  0.00009252  0.0143272 0.0000
  6  -4354.1922083440  -0.000321577763 0.00396857  0.00005736  0.0066899 0.0000
  7  -4354.1922638129  -0.000055468962 0.00332351  0.00003007  0.0010981 0.0000
  8  -4354.1922739976  -0.000010184729 0.00295308  0.00002824  0.0007243 0.0000
  9  -4354.1922788529  -0.000004855247 0.00036714  0.00000408  0.0001138 0.0000
 10  -4354.1922788983  -0.000000045457 0.00015294  0.00000168  0.0000952 0.0000
                 **** Energy Check signals convergence ****

               *****************************************************
               *                     SUCCESS                       *
               *           SCF CONVERGED AFTER  11 CYCLES          *
               *****************************************************


----------------
TOTAL SCF ENERGY
----------------

Total Energy       :        -4354.19227896 Eh         -118483.59550 eV

Components:
Nuclear Repulsion  :          240.76309061 Eh            6551.49677 eV
Electronic Energy  :        -4594.95536957 Eh         -125035.09227 eV
One Electron Energy:        -6546.73037067 Eh         -178145.59013 eV
Two Electron Energy:         1951.77500110 Eh           53110.49787 eV

Virial components:
Potential Energy   :        -8703.70539899 Eh         -236839.86461 eV
Kinetic Energy     :         4349.51312002 Eh          118356.26911 eV
Virial Ratio       :            2.00107579


DFT components:
N(Alpha)           :       33.000012402608 electrons
N(Beta)            :       32.000012903660 electrons
N(Total)           :       65.000025306267 electrons
E(X)               :     -159.933605094817 Eh       
E(C)               :       -3.132730699591 Eh       
E(XC)              :     -163.066335794408 Eh       
DFET-embed. en.    :        0.000000000000 Eh       

---------------
SCF CONVERGENCE
---------------

  Last Energy change         ...   -6.5813e-08  Tolerance :   1.0000e-06
  Last MAX-Density change    ...    3.8668e-05  Tolerance :   1.0000e-05
  Last RMS-Density change    ...    4.2666e-07  Tolerance :   1.0000e-06
  Last DIIS Error            ...    2.3777e-05  Tolerance :   1.0000e-06

             **** THE GBW FILE WAS UPDATED (58_ZnBr.gbw) ****
             **** DENSITY FILE WAS UPDATED (58_ZnBr.scfp) ****
             **** ENERGY FILE WAS UPDATED (58_ZnBr.en.tmp) ****
----------------------
UHF SPIN CONTAMINATION
----------------------

Warning: in a DFT calculation there is little theoretical justification to 
         calculate <S**2> as in Hartree-Fock theory. We will do it anyways
         but you should keep in mind that the values have only limited relevance

Expectation value of <S**2>     :     0.755525
Ideal value S*(S+1) for S=0.5   :     0.750000
Deviation                       :     0.005525

             **** THE GBW FILE WAS UPDATED (58_ZnBr.gbw) ****
             **** DENSITY FILE WAS UPDATED (58_ZnBr.scfp) ****
----------------
ORBITAL ENERGIES
----------------
                 SPIN UP ORBITALS
  NO   OCC          E(Eh)            E(eV) 
   0   1.0000    -482.254505    -13122.8122 
   1   1.0000    -346.825346     -9437.5975 
   2   1.0000     -62.295080     -1695.1353 
   3   1.0000     -56.097320     -1526.4857 
   4   1.0000     -56.095580     -1526.4383 
   5   1.0000     -56.095580     -1526.4383 
   6   1.0000     -42.047780     -1144.1783 
   7   1.0000     -37.033284     -1007.7269 
   8   1.0000     -37.033284     -1007.7269 
   9   1.0000     -37.032920     -1007.7170 
  10   1.0000      -8.642228      -235.1670 
  11   1.0000      -6.432517      -175.0377 
  12   1.0000      -6.425775      -174.8542 
  13   1.0000      -6.425775      -174.8542 
  14   1.0000      -4.835971      -131.5935 
  15   1.0000      -3.202711       -87.1502 
  16   1.0000      -3.202711       -87.1502 
  17   1.0000      -3.198665       -87.0401 
  18   1.0000      -2.511288       -68.3356 
  19   1.0000      -2.509451       -68.2856 
  20   1.0000      -2.509451       -68.2856 
  21   1.0000      -2.504258       -68.1443 
  22   1.0000      -2.504211       -68.1430 
  23   1.0000      -0.716385       -19.4938 
  24   1.0000      -0.462173       -12.5764 
  25   1.0000      -0.458909       -12.4876 
  26   1.0000      -0.458902       -12.4874 
  27   1.0000      -0.458508       -12.4766 
  28   1.0000      -0.458508       -12.4766 
  29   1.0000      -0.340494        -9.2653 
  30   1.0000      -0.266917        -7.2632 
  31   1.0000      -0.266917        -7.2632 
  32   1.0000      -0.220923        -6.0116 
  33   0.0000      -0.059478        -1.6185 
  34   0.0000      -0.059478        -1.6185 
  35   0.0000       0.008139         0.2215 
  36   0.0000       0.028921         0.7870 
  37   0.0000       0.048665         1.3243 
  38   0.0000       0.048666         1.3243 
  39   0.0000       0.074251         2.0205 
  40   0.0000       0.084018         2.2862 
  41   0.0000       0.100251         2.7280 
  42   0.0000       0.100252         2.7280 
  43   0.0000       0.122023         3.3204 
  44   0.0000       0.142230         3.8703 
  45   0.0000       0.142269         3.8713 
  46   0.0000       0.160047         4.3551 
  47   0.0000       0.173942         4.7332 
  48   0.0000       0.173943         4.7332 
  49   0.0000       0.203441         5.5359 
  50   0.0000       0.217984         5.9317 
  51   0.0000       0.217986         5.9317 
  52   0.0000       0.235014         6.3950 
  53   0.0000       0.235043         6.3959 
  54   0.0000       0.315501         8.5852 
  55   0.0000       0.328144         8.9293 
  56   0.0000       0.328145         8.9293 
  57   0.0000       0.354319         9.6415 
  58   0.0000       0.456955        12.4344 
  59   0.0000       0.456955        12.4344 
  60   0.0000       0.517913        14.0931 
  61   0.0000       0.588821        16.0226 
  62   0.0000       0.595294        16.1988 
  63   0.0000       0.595294        16.1988 
  64   0.0000       0.618389        16.8272 
  65   0.0000       0.619011        16.8442 
  66   0.0000       0.694942        18.9103 
  67   0.0000       0.733587        19.9619 
  68   0.0000       0.734050        19.9745 
  69   0.0000       0.807456        21.9720 
  70   0.0000       0.814794        22.1717 
  71   0.0000       0.814794        22.1717 
  72   0.0000       0.816594        22.2207 
  73   0.0000       0.816594        22.2207 
  74   0.0000       0.833563        22.6824 
  75   0.0000       0.833686        22.6857 
  76   0.0000       0.945475        25.7277 
  77   0.0000       0.945476        25.7277 
  78   0.0000       0.959674        26.1140 
  79   0.0000       1.030250        28.0345 
  80   0.0000       1.030250        28.0345 
  81   0.0000       1.176009        32.0008 
  82   0.0000       1.351190        36.7678 
  83   0.0000       1.613296        43.9000 
  84   0.0000       1.613296        43.9000 
  85   0.0000       1.672657        45.5153 
  86   0.0000       1.672845        45.5204 
  87   0.0000       1.796961        48.8978 
  88   0.0000       1.796961        48.8978 
  89   0.0000       1.832644        49.8688 
  90   0.0000       1.915107        52.1127 
  91   0.0000       1.915107        52.1127 
  92   0.0000       2.027059        55.1591 
  93   0.0000       2.027339        55.1667 
  94   0.0000       2.056596        55.9628 
  95   0.0000       2.085407        56.7468 
  96   0.0000       2.085407        56.7468 
  97   0.0000       2.109811        57.4109 
  98   0.0000       2.110653        57.4338 
  99   0.0000       2.155921        58.6656 
 100   0.0000       2.155921        58.6656 
 101   0.0000       2.202740        59.9396 
 102   0.0000       2.202740        59.9396 
 103   0.0000       2.261401        61.5358 
 104   0.0000       2.619455        71.2790 
 105   0.0000       2.746049        74.7238 
 106   0.0000       2.746201        74.7279 
 107   0.0000       2.828272        76.9612 
 108   0.0000       2.828272        76.9612 
 109   0.0000       2.976648        80.9987 
 110   0.0000       4.005721       109.0012 
 111   0.0000       4.221794       114.8808 
 112   0.0000       4.286027       116.6287 
 113   0.0000       4.286027       116.6287 
 114   0.0000       4.786083       130.2359 
 115   0.0000       4.932132       134.2101 
 116   0.0000       4.932132       134.2101 
 117   0.0000       4.969312       135.2219 
 118   0.0000       4.969313       135.2219 
 119   0.0000       5.100147       138.7820 
 120   0.0000       5.100147       138.7820 
 121   0.0000       5.384135       146.5098 
 122   0.0000       7.389964       201.0911 
 123   0.0000       7.390591       201.1082 
 124   0.0000       7.391945       201.1450 
 125   0.0000       7.391945       201.1450 
 126   0.0000       7.394589       201.2170 
 127   0.0000       7.394800       201.2228 
 128   0.0000       7.405619       201.5171 
 129   0.0000       7.405619       201.5171 
 130   0.0000       7.438081       202.4005 
 131   0.0000      10.229452       278.3575 
 132   0.0000      10.229453       278.3576 
 133   0.0000      10.304509       280.3999 
 134   0.0000      10.304509       280.3999 
 135   0.0000      10.439390       284.0703 
 136   0.0000      15.966512       434.4709 
 137   0.0000      15.966512       434.4709 
 138   0.0000      15.985427       434.9856 
 139   0.0000      15.985459       434.9865 
 140   0.0000      16.053208       436.8300 
 141   0.0000      16.053208       436.8300 
 142   0.0000      16.162196       439.7957 
 143   0.0000      19.860250       540.4249 
 144   0.0000      19.860374       540.4283 
 145   0.0000      19.862455       540.4849 
 146   0.0000      19.862455       540.4849 
 147   0.0000      19.864512       540.5409 
 148   0.0000      19.864878       540.5508 
 149   0.0000      19.871172       540.7221 
 150   0.0000      19.871172       540.7221 
 151   0.0000      19.884102       541.0739 

                 SPIN DOWN ORBITALS
  NO   OCC          E(Eh)            E(eV) 
   0   1.0000    -482.253909    -13122.7960 
   1   1.0000    -346.823669     -9437.5518 
   2   1.0000     -62.293673     -1695.0970 
   3   1.0000     -56.095569     -1526.4380 
   4   1.0000     -56.095569     -1526.4380 
   5   1.0000     -56.093353     -1526.3777 
   6   1.0000     -42.046524     -1144.1441 
   7   1.0000     -37.032049     -1007.6933 
   8   1.0000     -37.032049     -1007.6933 
   9   1.0000     -37.031804     -1007.6866 
  10   1.0000      -8.641029      -235.1343 
  11   1.0000      -6.430224      -174.9753 
  12   1.0000      -6.425159      -174.8375 
  13   1.0000      -6.425159      -174.8375 
  14   1.0000      -4.838276      -131.6562 
  15   1.0000      -3.204273       -87.1927 
  16   1.0000      -3.204273       -87.1927 
  17   1.0000      -3.200108       -87.0794 
  18   1.0000      -2.509221       -68.2794 
  19   1.0000      -2.507691       -68.2377 
  20   1.0000      -2.507691       -68.2377 
  21   1.0000      -2.503942       -68.1357 
  22   1.0000      -2.503893       -68.1344 
  23   1.0000      -0.709053       -19.2943 
  24   1.0000      -0.456120       -12.4117 
  25   1.0000      -0.454734       -12.3739 
  26   1.0000      -0.454723       -12.3736 
  27   1.0000      -0.454418       -12.3653 
  28   1.0000      -0.454418       -12.3653 
  29   1.0000      -0.322552        -8.7771 
  30   1.0000      -0.265135        -7.2147 
  31   1.0000      -0.265135        -7.2147 
  32   0.0000      -0.152293        -4.1441 
  33   0.0000      -0.033332        -0.9070 
  34   0.0000      -0.033332        -0.9070 
  35   0.0000      -0.024125        -0.6565 
  36   0.0000       0.014575         0.3966 
  37   0.0000       0.028579         0.7777 
  38   0.0000       0.028582         0.7777 
  39   0.0000       0.060151         1.6368 
  40   0.0000       0.076592         2.0842 
  41   0.0000       0.089804         2.4437 
  42   0.0000       0.089805         2.4437 
  43   0.0000       0.117113         3.1868 
  44   0.0000       0.140964         3.8358 
  45   0.0000       0.140978         3.8362 
  46   0.0000       0.145460         3.9582 
  47   0.0000       0.160985         4.3806 
  48   0.0000       0.160985         4.3806 
  49   0.0000       0.188381         5.1261 
  50   0.0000       0.215328         5.8594 
  51   0.0000       0.215329         5.8594 
  52   0.0000       0.232096         6.3157 
  53   0.0000       0.232106         6.3159 
  54   0.0000       0.307204         8.3594 
  55   0.0000       0.316380         8.6091 
  56   0.0000       0.316381         8.6092 
  57   0.0000       0.346541         9.4299 
  58   0.0000       0.455485        12.3944 
  59   0.0000       0.455486        12.3944 
  60   0.0000       0.509259        13.8576 
  61   0.0000       0.592076        16.1112 
  62   0.0000       0.595696        16.2097 
  63   0.0000       0.595696        16.2097 
  64   0.0000       0.624730        16.9998 
  65   0.0000       0.625178        17.0120 
  66   0.0000       0.685277        18.6473 
  67   0.0000       0.720173        19.5969 
  68   0.0000       0.720380        19.6025 
  69   0.0000       0.798941        21.7403 
  70   0.0000       0.806001        21.9324 
  71   0.0000       0.806002        21.9324 
  72   0.0000       0.817270        22.2390 
  73   0.0000       0.817270        22.2390 
  74   0.0000       0.842752        22.9325 
  75   0.0000       0.843324        22.9480 
  76   0.0000       0.931804        25.3557 
  77   0.0000       0.931805        25.3557 
  78   0.0000       0.956766        26.0349 
  79   0.0000       1.040363        28.3097 
  80   0.0000       1.040363        28.3097 
  81   0.0000       1.166882        31.7525 
  82   0.0000       1.348019        36.6815 
  83   0.0000       1.622076        44.1389 
  84   0.0000       1.622076        44.1389 
  85   0.0000       1.679216        45.6938 
  86   0.0000       1.679386        45.6984 
  87   0.0000       1.801399        49.0186 
  88   0.0000       1.801399        49.0186 
  89   0.0000       1.832604        49.8677 
  90   0.0000       1.921669        52.2913 
  91   0.0000       1.921669        52.2913 
  92   0.0000       2.025371        55.1131 
  93   0.0000       2.025557        55.1182 
  94   0.0000       2.060266        56.0627 
  95   0.0000       2.088049        56.8187 
  96   0.0000       2.088049        56.8187 
  97   0.0000       2.119063        57.6626 
  98   0.0000       2.119403        57.6719 
  99   0.0000       2.166286        58.9477 
 100   0.0000       2.166286        58.9477 
 101   0.0000       2.210324        60.1460 
 102   0.0000       2.210324        60.1460 
 103   0.0000       2.273177        61.8563 
 104   0.0000       2.611660        71.0669 
 105   0.0000       2.737010        74.4778 
 106   0.0000       2.737077        74.4797 
 107   0.0000       2.823823        76.8401 
 108   0.0000       2.823823        76.8401 
 109   0.0000       2.970739        80.8379 
 110   0.0000       4.003626       108.9442 
 111   0.0000       4.197770       114.2271 
 112   0.0000       4.276538       116.3705 
 113   0.0000       4.276538       116.3705 
 114   0.0000       4.777775       130.0099 
 115   0.0000       4.930618       134.1689 
 116   0.0000       4.930618       134.1689 
 117   0.0000       4.964267       135.0846 
 118   0.0000       4.964446       135.0894 
 119   0.0000       5.094623       138.6317 
 120   0.0000       5.094623       138.6317 
 121   0.0000       5.373415       146.2181 
 122   0.0000       7.402558       201.4338 
 123   0.0000       7.403176       201.4507 
 124   0.0000       7.405356       201.5100 
 125   0.0000       7.405356       201.5100 
 126   0.0000       7.408829       201.6045 
 127   0.0000       7.409030       201.6100 
 128   0.0000       7.419924       201.9064 
 129   0.0000       7.419924       201.9064 
 130   0.0000       7.451115       202.7551 
 131   0.0000      10.217511       278.0326 
 132   0.0000      10.217534       278.0332 
 133   0.0000      10.292455       280.0719 
 134   0.0000      10.292455       280.0720 
 135   0.0000      10.424413       283.6627 
 136   0.0000      15.975154       434.7060 
 137   0.0000      15.975154       434.7060 
 138   0.0000      15.990626       435.1271 
 139   0.0000      15.990689       435.1288 
 140   0.0000      16.057594       436.9493 
 141   0.0000      16.057594       436.9493 
 142   0.0000      16.165418       439.8834 
 143   0.0000      19.873717       540.7913 
 144   0.0000      19.873845       540.7948 
 145   0.0000      19.875098       540.8289 
 146   0.0000      19.875098       540.8289 
 147   0.0000      19.876360       540.8632 
 148   0.0000      19.876708       540.8727 
 149   0.0000      19.882544       541.0315 
 150   0.0000      19.882544       541.0315 
 151   0.0000      19.895322       541.3792 

                    ********************************
                    * MULLIKEN POPULATION ANALYSIS *
                    ********************************

--------------------------------------------
MULLIKEN ATOMIC CHARGES AND SPIN POPULATIONS
--------------------------------------------
   0 Zn:    0.440349    0.803001
   1 Br:   -0.440349    0.196999
Sum of atomic charges         :   -0.0000000
Sum of atomic spin populations:    1.0000000

-----------------------------------------------------
MULLIKEN REDUCED ORBITAL CHARGES AND SPIN POPULATIONS
-----------------------------------------------------
CHARGE
  0 Zns       :     7.181314  s :     7.181314
      pz      :     4.275733  p :    12.385112
      px      :     4.054690
      py      :     4.054690
      dz2     :     1.988797  d :     9.989625
      dxz     :     2.000694
      dyz     :     2.000693
      dx2y2   :     1.999723
      dxy     :     1.999718
      f0      :     0.001609  f :     0.003588
      f+1     :     0.000983
      f-1     :     0.000983
      f+2     :     0.000006
      f-2     :     0.000006
      f+3     :     0.000000
      f-3     :     0.000000
      g0      :     0.000005  g :     0.000011
      g+1     :     0.000003
      g-1     :     0.000003
      g+2     :     0.000000
      g-2     :     0.000000
      g+3     :     0.000000
      g-3     :     0.000000
      g+4     :     0.000000
      g-4     :     0.000000
  1 Brs       :     8.016772  s :     8.016772
      pz      :     5.520979  p :    17.391429
      px      :     5.935225
      py      :     5.935225
      dz2     :     2.014050  d :    10.028575
      dxz     :     2.007109
      dyz     :     2.007109
      dx2y2   :     2.000152
      dxy     :     2.000155
      f0      :     0.000741  f :     0.003574
      f+1     :     0.001297
      f-1     :     0.001297
      f+2     :     0.000119
      f-2     :     0.000121
      f+3     :     0.000000
      f-3     :     0.000000

SPIN
  0 Zns       :     0.605094  s :     0.605094
      pz      :     0.182144  p :     0.196526
      px      :     0.007191
      py      :     0.007191
      dz2     :     0.006622  d :     0.001454
      dxz     :    -0.002751
      dyz     :    -0.002751
      dx2y2   :     0.000167
      dxy     :     0.000167
      f0      :     0.000126  f :    -0.000073
      f+1     :    -0.000101
      f-1     :    -0.000101
      f+2     :     0.000001
      f-2     :     0.000001
      f+3     :     0.000000
      f-3     :     0.000000
      g0      :     0.000000  g :     0.000000
      g+1     :    -0.000000
      g-1     :    -0.000000
      g+2     :    -0.000000
      g-2     :    -0.000000
      g+3     :     0.000000
      g-3     :     0.000000
      g+4     :     0.000000
      g-4     :    -0.000000
  1 Brs       :     0.009032  s :     0.009032
      pz      :     0.195276  p :     0.187203
      px      :    -0.004036
      py      :    -0.004036
      dz2     :     0.001673  d :     0.000976
      dxz     :    -0.000258
      dyz     :    -0.000258
      dx2y2   :    -0.000091
      dxy     :    -0.000090
      f0      :     0.000032  f :    -0.000212
      f+1     :    -0.000045
      f-1     :    -0.000045
      f+2     :    -0.000077
      f-2     :    -0.000078
      f+3     :    -0.000000
      f-3     :    -0.000000


                     *******************************
                     * LOEWDIN POPULATION ANALYSIS *
                     *******************************

-------------------------------------------
LOEWDIN ATOMIC CHARGES AND SPIN POPULATIONS
-------------------------------------------
   0 Zn:    0.157614    0.767608
   1 Br:   -0.157614    0.232392

----------------------------------------------------
LOEWDIN REDUCED ORBITAL CHARGES AND SPIN POPULATIONS
----------------------------------------------------
CHARGE
  0 Zns       :     6.893671  s :     6.893671
      pz      :     4.496499  p :    12.684164
      px      :     4.093832
      py      :     4.093832
      dz2     :     2.117911  d :    10.248592
      dxz     :     2.066430
      dyz     :     2.066430
      dx2y2   :     1.998911
      dxy     :     1.998909
      f0      :     0.008702  f :     0.015914
      f+1     :     0.003599
      f-1     :     0.003599
      f+2     :     0.000007
      f-2     :     0.000007
      f+3     :     0.000000
      f-3     :     0.000000
      g0      :     0.000026  g :     0.000046
      g+1     :     0.000010
      g-1     :     0.000010
      g+2     :     0.000000
      g-2     :     0.000000
      g+3     :     0.000000
      g-3     :     0.000000
      g+4     :     0.000000
      g-4     :     0.000000
  1 Brs       :     7.736667  s :     7.736667
      pz      :     5.602485  p :    17.238138
      px      :     5.817827
      py      :     5.817827
      dz2     :     2.113843  d :    10.133646
      dxz     :     2.009427
      dyz     :     2.009427
      dx2y2   :     2.000474
      dxy     :     2.000475
      f0      :     0.030196  f :     0.049163
      f+1     :     0.008875
      f-1     :     0.008875
      f+2     :     0.000608
      f-2     :     0.000609
      f+3     :     0.000000
      f-3     :     0.000000

SPIN
  0 Zns       :     0.468236  s :     0.468236
      pz      :     0.275484  p :     0.291004
      px      :     0.007760
      py      :     0.007760
      dz2     :     0.013735  d :     0.006756
      dxz     :    -0.003513
      dyz     :    -0.003513
      dx2y2   :     0.000023
      dxy     :     0.000024
      f0      :     0.001635  f :     0.001607
      f+1     :    -0.000017
      f-1     :    -0.000017
      f+2     :     0.000004
      f-2     :     0.000003
      f+3     :     0.000000
      f-3     :     0.000000
      g0      :     0.000005  g :     0.000005
      g+1     :    -0.000000
      g-1     :    -0.000000
      g+2     :    -0.000000
      g-2     :    -0.000000
      g+3     :     0.000000
      g-3     :     0.000000
      g+4     :     0.000000
      g-4     :    -0.000000
  1 Brs       :     0.034750  s :     0.034750
      pz      :     0.171109  p :     0.163680
      px      :    -0.003714
      py      :    -0.003714
      dz2     :     0.033368  d :     0.032684
      dxz     :    -0.000325
      dyz     :    -0.000325
      dx2y2   :    -0.000016
      dxy     :    -0.000017
      f0      :     0.001679  f :     0.001278
      f+1     :    -0.000190
      f-1     :    -0.000190
      f+2     :    -0.000010
      f-2     :    -0.000011
      f+3     :    -0.000000
      f-3     :    -0.000000


                      *****************************
                      * MAYER POPULATION ANALYSIS *
                      *****************************

  NA   - Mulliken gross atomic population
  ZA   - Total nuclear charge
  QA   - Mulliken gross atomic charge
  VA   - Mayer's total valence
  BVA  - Mayer's bonded valence
  FA   - Mayer's free valence

  ATOM       NA         ZA         QA         VA         BVA        FA
  0 Zn    29.5597    30.0000     0.4403     1.6385     0.9053     0.7333
  1 Br    35.4403    35.0000    -0.4403     0.9371     0.9053     0.0318

  Mayer bond orders larger than 0.100000
B(  0-Zn,  1-Br) :   0.9053 

-------
TIMINGS
-------

Total SCF time: 0 days 0 hours 0 min 2 sec 

Total time                  ....       2.933 sec
Sum of individual times     ....       2.788 sec  ( 95.1%)

Fock matrix formation       ....       2.359 sec  ( 80.4%)
  Split-RI-J                ....       1.719 sec  ( 72.9% of F)
  XC integration            ....       0.578 sec  ( 24.5% of F)
    Basis function eval.    ....       0.083 sec  ( 14.4% of XC)
    Density eval.           ....       0.084 sec  ( 14.5% of XC)
    XC-Functional eval.     ....       0.015 sec  (  2.5% of XC)
    XC-Potential eval.      ....       0.222 sec  ( 38.5% of XC)
Diagonalization             ....       0.066 sec  (  2.3%)
Density matrix formation    ....       0.010 sec  (  0.3%)
Population analysis         ....       0.007 sec  (  0.2%)
Initial guess               ....       0.117 sec  (  4.0%)
Orbital Transformation      ....       0.000 sec  (  0.0%)
Orbital Orthonormalization  ....       0.000 sec  (  0.0%)
DIIS solution               ....       0.025 sec  (  0.9%)
Grid generation             ....       0.204 sec  (  6.9%)


-------------------------------------------------------------------------------
                          DFT DISPERSION CORRECTION                            
                                                                               
                              DFTD3 V3.1  Rev 1                                
                          USING Becke-Johnson damping                          
-------------------------------------------------------------------------------
The SCAN functional is recognized
Active option DFTDOPT                   ...         4   

molecular C6(AA) [au] = 765.708786 


            DFT-D V3
 parameters
 s6 scaling factor         :     1.0000 
 a1 scaling factor         :     0.5380 
 s8 scaling factor         :     0.0000 
 a2 scaling factor         :     5.4200 
 ad hoc parameters k1-k3   :    16.0000     1.3333    -4.0000 

 Edisp/kcal,au: -0.121919629851  -0.000194291277 
 E6   /kcal   :  -0.121919630 
 E8   /kcal   :  -0.000000000 
 % E8         :   0.000000000 

-------------------------   ----------------
Dispersion correction           -0.000194291
-------------------------   ----------------


-------------------------   --------------------
FINAL SINGLE POINT ENERGY     -4354.192473255439
-------------------------   --------------------


                            ***************************************
                            *     ORCA property calculations      *
                            ***************************************

                                    ---------------------
                                    Active property flags
                                    ---------------------
   (+) Dipole Moment


------------------------------------------------------------------------------
                       ORCA ELECTRIC PROPERTIES CALCULATION
------------------------------------------------------------------------------

Dipole Moment Calculation                       ... on
Quadrupole Moment Calculation                   ... off
Polarizability Calculation                      ... off
GBWName                                         ... 58_ZnBr.gbw
Electron density file                           ... 58_ZnBr.scfp
The origin for moment calculation is the CENTER OF MASS  = ( 0.000000,  0.000000  2.107663)

-------------
DIPOLE MOMENT
-------------
                                X             Y             Z
Electronic contribution:     -0.00000       0.00000       2.25145
Nuclear contribution   :      0.00000       0.00000      -3.26305
                        -----------------------------------------
Total Dipole Moment    :     -0.00000       0.00000      -1.01160
                        -----------------------------------------
Magnitude (a.u.)       :      1.01160
Magnitude (Debye)      :      2.57128



--------------------
Rotational spectrum 
--------------------
 
Rotational constants in cm-1:     0.000000     0.088026     0.088026 
Rotational constants in MHz :     0.000000  2638.947188  2638.947188 

 Dipole components along the rotational axes: 
x,y,z [a.u.] :    -1.011598     0.000000    -0.000000 
x,y,z [Debye]:    -2.571279     0.000000    -0.000000 

 

Timings for individual modules:

Sum of individual times         ...        7.658 sec (=   0.128 min)
GTO integral calculation        ...        4.404 sec (=   0.073 min)  57.5 %
SCF iterations                  ...        3.254 sec (=   0.054 min)  42.5 %
                             ****ORCA TERMINATED NORMALLY****
TOTAL RUN TIME: 0 days 0 hours 0 minutes 8 seconds 302 msec
