
                                 *****************
                                 * O   R   C   A *
                                 *****************

           --- An Ab Initio, DFT and Semiempirical electronic structure package ---

                  #######################################################
                  #                        -***-                        #
                  #          Department of theory and spectroscopy      #
                  #               Directorship: Frank Neese             #
                  #        Max Planck Institute fuer Kohlenforschung    #
                  #                Kaiser Wilhelm Platz 1               #
                  #                 D-45470 Muelheim/Ruhr               #
                  #                      Germany                        #
                  #                                                     #
                  #                  All rights reserved                #
                  #                        -***-                        #
                  #######################################################


                         Program Version 4.2.0 -  RELEASE  -


 With contributions from (in alphabetic order):
   Daniel Aravena         : Magnetic Suceptibility
   Michael Atanasov       : Ab Initio Ligand Field Theory (pilot matlab implementation)
   Alexander A. Auer      : GIAO ZORA, VPT2
   Ute Becker             : Parallelization
   Giovanni Bistoni       : ED, misc. LED, open-shell LED, HFLED
   Martin Brehm           : Molecular dynamics
   Dmytro Bykov           : SCF Hessian
   Vijay G. Chilkuri      : MRCI spin determinant printing, contributions to CSF-ICE
   Dipayan Datta          : RHF DLPNO-CCSD density
   Achintya Kumar Dutta   : EOM-CC, STEOM-CC
   Dmitry Ganyushin       : Spin-Orbit,Spin-Spin,Magnetic field MRCI
   Miquel Garcia          : C-PCM Hessian, Gaussian charge scheme
   Yang Guo               : DLPNO-NEVPT2, CIM, IAO-localization
   Andreas Hansen         : Spin unrestricted coupled pair/coupled cluster methods
   Benjamin Helmich-Paris : CASSCF linear response (MC-RPA)
   Lee Huntington         : MR-EOM, pCC
   Robert Izsak           : Overlap fitted RIJCOSX, COSX-SCS-MP3, EOM
   Christian Kollmar      : KDIIS, OOCD, Brueckner-CCSD(T), CCSD density
   Simone Kossmann        : Meta GGA functionals, TD-DFT gradient, OOMP2, MP2 Hessian
   Martin Krupicka        : AUTO-CI
   Lucas Lang             : DCDCAS
   Dagmar Lenk            : GEPOL surface, SMD
   Dimitrios Liakos       : Extrapolation schemes; Compound Job, initial MDCI parallelization
   Dimitrios Manganas     : Further ROCIS development; embedding schemes
   Dimitrios Pantazis     : SARC Basis sets
   Taras Petrenko         : DFT Hessian,TD-DFT gradient, ASA, ECA, R-Raman, ABS, FL, XAS/XES, NRVS
   Peter Pinski           : DLPNO-MP2, DLPNO-MP2 Gradient
   Christoph Reimann      : Effective Core Potentials
   Marius Retegan         : Local ZFS, SOC
   Christoph Riplinger    : Optimizer, TS searches, QM/MM, DLPNO-CCSD(T), (RO)-DLPNO pert. Triples
   Tobias Risthaus        : Range-separated hybrids, TD-DFT gradient, RPA, STAB
   Michael Roemelt        : Original ROCIS implementation
   Masaaki Saitow         : Open-shell DLPNO-CCSD energy and density
   Barbara Sandhoefer     : DKH picture change effects
   Avijit Sen             : IP-ROCIS
   Kantharuban Sivalingam : CASSCF convergence, NEVPT2, FIC-MRCI
   Bernardo de Souza      : ESD, SOC TD-DFT
   Georgi Stoychev        : AutoAux, RI-MP2 NMR
   Willem Van den Heuvel  : Paramagnetic NMR
   Boris Wezisla          : Elementary symmetry handling
   Frank Wennmohs         : Technical directorship


 We gratefully acknowledge several colleagues who have allowed us to
 interface, adapt or use parts of their codes:
   Stefan Grimme, W. Hujo, H. Kruse,             : VdW corrections, initial TS optimization,
                  C. Bannwarth                     DFT functionals, gCP, sTDA/sTD-DF
   Ed Valeev, F. Pavosevic, A. Kumar             : LibInt (2-el integral package), F12 methods
   Garnet Chan, S. Sharma, J. Yang, R. Olivares  : DMRG
   Ulf Ekstrom                                   : XCFun DFT Library
   Mihaly Kallay                                 : mrcc  (arbitrary order and MRCC methods)
   Andreas Klamt, Michael Diedenhofen            : otool_cosmo (COSMO solvation model)
   Jiri Pittner, Ondrej Demel                    : Mk-CCSD
   Frank Weinhold                                : gennbo (NPA and NBO analysis)
   Christopher J. Cramer and Donald G. Truhlar   : smd solvation model
   Lars Goerigk                                  : TD-DFT with DH, B97 family of functionals
   V. Asgeirsson, H. Jonsson                     : NEB implementation
   FAccTs GmbH                                   : IRC, NEB, NEB-TS, Multilevel, MM, QM/MM, CI optimization
   S Lehtola, MJT Oliveira, MAL Marques          : LibXC Library


 Your calculation uses the libint2 library for the computation of 2-el integrals
 For citations please refer to: http://libint.valeyev.net

 Your ORCA version has been built with support for libXC version: 4.2.3
 For citations please refer to: https://tddft.org/programs/libxc/

 This ORCA versions uses:
   CBLAS   interface :  Fast vector & matrix operations
   LAPACKE interface :  Fast linear algebra routines
   SCALAPACK package :  Parallel linear algebra routines


Your calculation utilizes the atom-pairwise dispersion correction
with the Becke-Johnson damping scheme (D3BJ)
Cite in your paper:
S.Grimme, S.Ehrlich, L.Goerigk, J Comput Chem, (2011), 32, 1456–1465 
S.Grimme, J.Antony, S.Ehrlich and H.Krieg, J.Chem.Phys., 132, (2010), 154104 
   

----- Orbital basis set information -----
Your calculation utilizes the basis: aug-cc-pVTZ 
    H, B-Ne : Obtained from the ccRepo (grant-hill.group.shef.ac.uk/ccrepo) Feb. 2017
              R. A. Kendall, T. H. Dunning, Jr., R. J. Harrison, J. Chem. Phys. 96, 6796 (1992)
         He : Obtained from the ccRepo (grant-hill.group.shef.ac.uk/ccrepo) Feb. 2017
              D. E. Woon, T. H. Dunning, Jr., J. Chem. Phys. 100, 2975 (1994)
  Li-Be, Na : Obtained from the ccRepo (grant-hill.group.shef.ac.uk/ccrepo) Feb. 2017
              B. P. Prascher, D. E. Woon, K. A. Peterson, T. H. Dunning, Jr., A. K. Wilson, Theor. Chem. Acc. 128, 69 (2011)
         Mg : Obtained from the Peterson Research Group Website (tyr0.chem.wsu.edu/~kipeters) Feb. 2017
              B. P. Prascher, D. E. Woon, K. A. Peterson, T. H. Dunning, Jr., A. K. Wilson, Theor. Chem. Acc. 128, 69 (2011)
      Al-Ar : Obtained from the ccRepo (grant-hill.group.shef.ac.uk/ccrepo) Feb. 2017
              D. E. Woon, T. H. Dunning, Jr., J. Chem. Phys. 98, 1358 (1993)
      Sc-Zn : Obtained from the ccRepo (grant-hill.group.shef.ac.uk/ccrepo) Feb. 2017
              N. B. Balabanov, K. A. Peterson, J. Chem. Phys. 123, 064107 (2005)
              N. B. Balabanov, K. A. Peterson, J. Chem. Phys. 125, 074110 (2006)
      Ga-Kr : Obtained from the ccRepo (grant-hill.group.shef.ac.uk/ccrepo) Feb. 2017
              A. K. Wilson, D. E. Woon, K. A. Peterson, T. H. Dunning, Jr., J. Chem. Phys. 110, 7667 (1999)
     Ag, Au : Obtained from the Peterson Research Group Website (tyr0.chem.wsu.edu/~kipeters) Feb. 2017
              K. A. Peterson, C. Puzzarini, Theor. Chem. Acc. 114, 283 (2005)

----- AuxJ basis set information -----
Your calculation utilizes the auxiliary basis: def2/J
   F. Weigend, Phys. Chem. Chem. Phys. 8, 1057 (2006).

================================================================================
                                        WARNINGS
                       Please study these warnings very carefully!
================================================================================


WARNING: your system is open-shell and RHF/RKS was chosen
  ===> : WILL SWITCH to UHF/UKS


WARNING: The SCAN functional is very grid-sensitive!
         Use at least GRID5 and a higher intacc

INFO   : the flag for use of LIBINT has been found!

================================================================================
                                       INPUT FILE
================================================================================
NAME = 67_Co.in
|  1> #
|  2> # 67_Co scanfunc/aug-cc-pvtz
|  3> #
|  4> ! scanfunc d3bj aug-cc-pvtz def2/j grid4 nofinalgrid
|  5> 
|  6> *xyz 0 4
|  7> Co 0.0 0.0 0.0
|  8> *
|  9> 
| 10> %pal
| 11> nprocs 24
| 12> end
| 13> 
| 14> 
| 15>                          ****END OF INPUT****
================================================================================

                       ****************************
                       * Single Point Calculation *
                       ****************************

---------------------------------
CARTESIAN COORDINATES (ANGSTROEM)
---------------------------------
  Co     0.000000    0.000000    0.000000

----------------------------
CARTESIAN COORDINATES (A.U.)
----------------------------
  NO LB      ZA    FRAG     MASS         X           Y           Z
   0 Co   27.0000    0    58.930    0.000000    0.000000    0.000000

--------------------------------
INTERNAL COORDINATES (ANGSTROEM)
--------------------------------
 Co     0   0   0     0.000000000000     0.00000000     0.00000000

---------------------------
INTERNAL COORDINATES (A.U.)
---------------------------
 Co     0   0   0     0.000000000000     0.00000000     0.00000000

---------------------
BASIS SET INFORMATION
---------------------
There are 1 groups of distinct atoms

 Group   1 Type Co  : 116s77p23d3f2g contracted to 8s7p5d3f2g pattern {19191919191911/151515151511/77711/111/11}

Atom   0Co   basis set group =>   1
---------------------------------
AUXILIARY/J BASIS SET INFORMATION
---------------------------------
There are 1 groups of distinct atoms

 Group   1 Type Co  : 19s5p5d3f3g contracted to 8s5p5d2f3g pattern {121111111/11111/11111/21/111}

Atom   0Co   basis set group =>   1


           ************************************************************
           *        Program running with 24 parallel MPI-processes    *
           *              working on a common directory               *
           ************************************************************
------------------------------------------------------------------------------
                           ORCA GTO INTEGRAL CALCULATION
                           -- RI-GTO INTEGRALS CHOSEN --
------------------------------------------------------------------------------

                         BASIS SET STATISTICS AND STARTUP INFO

Gaussian basis set:
 # of primitive gaussian shells          ...  221
 # of primitive gaussian functions       ...  501
 # of contracted shells                  ...   25
 # of contracted basis functions         ...   93
 Highest angular momentum                ...    4
 Maximum contraction depth               ...   19
Auxiliary gaussian basis set:
 # of primitive gaussian shells          ...   35
 # of primitive gaussian functions       ...  107
 # of contracted shells                  ...   23
 # of contracted aux-basis functions     ...   89
 Highest angular momentum                ...    4
 Maximum contraction depth               ...   12
Ratio of auxiliary to basis functions    ...  0.96
Integral package used                  ... LIBINT
 One Electron integrals                  ... done
 Ordering auxiliary basis shells         ... done
 Integral threshhold             Thresh  ...  1.000e-10
 Primitive cut-off               TCut    ...  1.000e-11
 Pre-screening matrix                    ... done
 Shell pair data                         ... 
 Ordering of the shell pairs             ... done (   0.000 sec) 325 of 325 pairs
 Determination of significant pairs      ... done (   0.000 sec)
 Creation of shell pair data             ... done (   0.001 sec)
 Storage of shell pair data              ... done (   0.001 sec)
 Shell pair data done in (   0.002 sec)
 Computing two index integrals           ... done
 Cholesky decomposition of the V-matrix  ... done


Timings:
 Total evaluation time                   ...   2.115 sec (  0.035 min)
 One electron matrix time                ...   0.030 sec (  0.000 min) =  1.4%
 Schwartz matrix evaluation time         ...   2.054 sec (  0.034 min) = 97.1%
 Two index repulsion integral time       ...   0.000 sec (  0.000 min) =  0.0%
 Cholesky decomposition of V             ...   0.001 sec (  0.000 min) =  0.0%
 Three index repulsion integral time     ...   0.000 sec (  0.000 min) =  0.0%



           ************************************************************
           *        Program running with 24 parallel MPI-processes    *
           *              working on a common directory               *
           ************************************************************
-------------------------------------------------------------------------------
                                 ORCA SCF
-------------------------------------------------------------------------------

------------
SCF SETTINGS
------------
Hamiltonian:
 Density Functional     Method          .... DFT(GTOs)
 Exchange Functional    Exchange        .... SCAN
 Correlation Functional Correlation     .... SCAN
 Gradients option       PostSCFGGA      .... off
   Density functional embedding theory  .... OFF
   NL short-range parameter             ....  6.400000
 RI-approximation to the Coulomb term is turned on
   Number of auxiliary basis functions  .... 89


General Settings:
 Integral files         IntName         .... 67_Co
 Hartree-Fock type      HFTyp           .... UHF
 Total Charge           Charge          ....    0
 Multiplicity           Mult            ....    4
 Number of Electrons    NEL             ....   27
 Basis Dimension        Dim             ....   93
 Nuclear Repulsion      ENuc            ....      0.0000000000 Eh

Convergence Acceleration:
 DIIS                   CNVDIIS         .... on
   Start iteration      DIISMaxIt       ....    12
   Startup error        DIISStart       ....  0.200000
   # of expansion vecs  DIISMaxEq       ....     5
   Bias factor          DIISBfac        ....   1.050
   Max. coefficient     DIISMaxC        ....  10.000
 Newton-Raphson         CNVNR           .... off
 SOSCF                  CNVSOSCF        .... off
 Level Shifting         CNVShift        .... on
   Level shift para.    LevelShift      ....    0.2500
   Turn off err/grad.   ShiftErr        ....    0.0010
 Zerner damping         CNVZerner       .... off
 Static damping         CNVDamp         .... on
   Fraction old density DampFac         ....    0.7000
   Max. Damping (<1)    DampMax         ....    0.9800
   Min. Damping (>=0)   DampMin         ....    0.0000
   Turn off err/grad.   DampErr         ....    0.1000
 Fernandez-Rico         CNVRico         .... off

SCF Procedure:
 Maximum # iterations   MaxIter         ....   125
 SCF integral mode      SCFMode         .... Direct
   Integral package                     .... LIBINT
 Reset frequency        DirectResetFreq ....    20
 Integral Threshold     Thresh          ....  1.000e-10 Eh
 Primitive CutOff       TCut            ....  1.000e-11 Eh

Convergence Tolerance:
 Convergence Check Mode ConvCheckMode   .... Total+1el-Energy
 Convergence forced     ConvForced      .... 0
 Energy Change          TolE            ....  1.000e-06 Eh
 1-El. energy change                    ....  1.000e-03 Eh
 DIIS Error             TolErr          ....  1.000e-06


Diagonalization of the overlap matrix:
Smallest eigenvalue                        ... 3.427e-04
Time for diagonalization                   ...    0.003 sec
Threshold for overlap eigenvalues          ... 1.000e-08
Number of eigenvalues below threshold      ... 0
Time for construction of square roots      ...    0.002 sec
Total time needed                          ...    0.004 sec

-------------------
DFT GRID GENERATION
-------------------

General Integration Accuracy     IntAcc      ...  4.670
Radial Grid Type                 RadialGrid  ... Gauss-Chebyshev
Angular Grid (max. acc.)         AngularGrid ... Lebedev-302
Angular grid pruning method      GridPruning ... 3 (G Style)
Weight generation scheme         WeightScheme... Becke
Basis function cutoff            BFCut       ...    1.0000e-10
Integration weight cutoff        WCut        ...    1.0000e-14
Grids for H and He will be reduced by one unit

# of grid points (after initial pruning)     ...   9640 (   0.0 sec)
# of grid points (after weights+screening)   ...   9640 (   0.0 sec)
Grid point division into batches done        ...    0.1 sec
Reduced shell lists constructed in    0.1 sec

Total number of grid points                  ...     9640
Total number of batches                      ...      151
Average number of points per batch           ...       63
Average number of grid points per atom       ...     9640
Average number of shells per batch           ...     8.38 (33.50%)
Average number of basis functions per batch  ...    19.62 (21.10%)
Average number of large shells per batch     ...     4.38 (52.24%)
Average number of large basis fcns per batch ...    11.38 (57.96%)
Maximum spatial batch extension              ...  27.95, 22.27, 22.27 au
Average spatial batch extension              ...   0.96,  0.89,  0.86 au

Time for grid setup =    0.125 sec

------------------------------
INITIAL GUESS: MODEL POTENTIAL
------------------------------
Loading Hartree-Fock densities                     ... done
Calculating cut-offs                               ... done
Setting up the integral package                    ... done
Initializing the effective Hamiltonian             ... done
Starting the Coulomb interaction                   ... done (   0.0 sec)
Reading the grid                                   ... done
Mapping shells                                     ... done
Starting the XC term evaluation                    ... done (   0.0 sec)
  promolecular density results
     # of electrons  =     27.000029305
     EX              =    -65.438340299
     EC              =     -0.481778714
     EX+EC           =    -65.920119013
Transforming the Hamiltonian                       ... done (   0.0 sec)
Diagonalizing the Hamiltonian                      ... done (   0.0 sec)
Back transforming the eigenvectors                 ... done (   0.0 sec)
Now organizing SCF variables                       ... done
                      ------------------
                      INITIAL GUESS DONE (   0.2 sec)
                      ------------------
--------------
SCF ITERATIONS
--------------
ITER       Energy         Delta-E        Max-DP      RMS-DP      [F,P]     Damp
               ***  Starting incremental Fock matrix formation  ***
  0  -1382.4138746704   0.000000000000 0.50068884  0.01129453  0.8188757 0.7000
  1  -1382.1340041310   0.279870539431 0.15922561  0.00367949  0.2600485 0.7000
  2  -1382.4514061375  -0.317402006565 0.14162568  0.00334985  0.2196006 0.7000
  3  -1382.5809238665  -0.129517728936 0.10208921  0.00252158  0.2503549 0.7000
                               ***Turning on DIIS***
  4  -1382.6664812808  -0.085557414324 0.06884361  0.00168200  0.1807939 0.7000
  5  -1382.7257031248  -0.059221844048 0.04971927  0.00112069  0.1049844 0.7000
  6  -1382.7670789952  -0.041375870374 0.16182284  0.00294354  0.0751897 0.0000
  7  -1382.8671183966  -0.100039401425 0.04112320  0.00052346  0.0156186 0.0000
  8  -1382.8691171513  -0.001998754605 0.03727168  0.00046170  0.0130504 0.0000
  9  -1382.8705346292  -0.001417477971 0.02938628  0.00035977  0.0123319 0.0000
 10  -1382.8715157205  -0.000981091245 0.02796918  0.00034587  0.0083235 0.0000
 11  -1382.8722446502  -0.000728929723 0.01805125  0.00022138  0.0064269 0.0000
 12  -1382.8726233602  -0.000378710008 0.01699972  0.00023208  0.0046769 0.0000
 13  -1382.8729264425  -0.000303082301 0.01079177  0.00015116  0.0034320 0.0000
 14  -1382.8730971389  -0.000170696401 0.00850658  0.00013407  0.0023183 0.0000
 15  -1382.8732234907  -0.000126351838 0.00708094  0.00010775  0.0017082 0.0000
 16  -1382.8733106407  -0.000087149912 0.00737689  0.00010868  0.0016662 0.0000
 17  -1382.8733872691  -0.000076628457 0.00552279  0.00008220  0.0015988 0.0000
 18  -1382.8734398974  -0.000052628253 0.00769130  0.00011787  0.0015174 0.0000
 19  -1382.8735023433  -0.000062445945 0.00443383  0.00006875  0.0014010 0.0000
               *** Restarting incremental Fock matrix formation ***
                                   *** Resetting DIIS ***
 20  -1382.8735333280  -0.000030984724 0.00258364  0.00004252  0.0012839 0.0000
 21  -1382.8735520209  -0.000018692914 0.00227647  0.00003794  0.0012286 0.0000
 22  -1382.8735686902  -0.000016669296 0.00189957  0.00003205  0.0011897 0.0000
 23  -1382.8735811719  -0.000012481641 0.00240272  0.00004080  0.0011539 0.0000
 24  -1382.8735970636  -0.000015891760 0.00418388  0.00007291  0.0011150 0.0000
 25  -1382.8736229939  -0.000025930215 0.00192264  0.00003401  0.0010240 0.0000
 26  -1382.8736341239  -0.000011130031 0.01735771  0.00029990  0.0009643 0.0000
 27  -1382.8737067973  -0.000072673389 0.00255104  0.00004484  0.0004755 0.0000
 28  -1382.8737129112  -0.000006113969 0.00622408  0.00010471  0.0004232 0.0000
 29  -1382.8737239234  -0.000011012161 0.00370738  0.00006220  0.0003430 0.0000
 30  -1382.8737267096  -0.000002786165 0.00229627  0.00003888  0.0001274 0.0000
 31  -1382.8737279310  -0.000001221460 0.00176707  0.00003099  0.0000658 0.0000
                 **** Energy Check signals convergence ****

               *****************************************************
               *                     SUCCESS                       *
               *           SCF CONVERGED AFTER  32 CYCLES          *
               *****************************************************


----------------
TOTAL SCF ENERGY
----------------

Total Energy       :        -1382.87372811 Eh          -37629.90721 eV

Components:
Nuclear Repulsion  :            0.00000000 Eh               0.00000 eV
Electronic Energy  :        -1382.87372811 Eh          -37629.90721 eV
One Electron Energy:        -1918.45385485 Eh          -52203.78338 eV
Two Electron Energy:          535.58012674 Eh           14573.87617 eV

Virial components:
Potential Energy   :        -2764.45250010 Eh          -75224.57687 eV
Kinetic Energy     :         1381.57877199 Eh           37594.66966 eV
Virial Ratio       :            2.00093730


DFT components:
N(Alpha)           :       15.000006839529 electrons
N(Beta)            :       12.000007116388 electrons
N(Total)           :       27.000013955917 electrons
E(X)               :      -58.339430612510 Eh       
E(C)               :       -1.220710248219 Eh       
E(XC)              :      -59.560140860729 Eh       
DFET-embed. en.    :        0.000000000000 Eh       

---------------
SCF CONVERGENCE
---------------

  Last Energy change         ...   -1.8002e-07  Tolerance :   1.0000e-06
  Last MAX-Density change    ...    1.5975e-03  Tolerance :   1.0000e-05
  Last RMS-Density change    ...    2.1721e-05  Tolerance :   1.0000e-06
  Last DIIS Error            ...    3.4146e-05  Tolerance :   1.0000e-06

             **** THE GBW FILE WAS UPDATED (67_Co.gbw) ****
             **** DENSITY FILE WAS UPDATED (67_Co.scfp) ****
             **** ENERGY FILE WAS UPDATED (67_Co.en.tmp) ****
----------------------
UHF SPIN CONTAMINATION
----------------------

Warning: in a DFT calculation there is little theoretical justification to 
         calculate <S**2> as in Hartree-Fock theory. We will do it anyways
         but you should keep in mind that the values have only limited relevance

Expectation value of <S**2>     :     3.753734
Ideal value S*(S+1) for S=1.5   :     3.750000
Deviation                       :     0.003734

             **** THE GBW FILE WAS UPDATED (67_Co.gbw) ****
             **** DENSITY FILE WAS UPDATED (67_Co.scfp) ****
----------------
ORBITAL ENERGIES
----------------
                 SPIN UP ORBITALS
  NO   OCC          E(Eh)            E(eV) 
   0   1.0000    -276.991820     -7537.3306 
   1   1.0000     -32.514028      -884.7517 
   2   1.0000     -28.180994      -766.8438 
   3   1.0000     -28.180348      -766.8263 
   4   1.0000     -28.179668      -766.8077 
   5   1.0000      -3.650144       -99.3255 
   6   1.0000      -2.324789       -63.2607 
   7   1.0000      -2.323295       -63.2201 
   8   1.0000      -2.321814       -63.1798 
   9   1.0000      -0.222411        -6.0521 
  10   1.0000      -0.222369        -6.0510 
  11   1.0000      -0.183343        -4.9890 
  12   1.0000      -0.162602        -4.4246 
  13   1.0000      -0.162484        -4.4214 
  14   1.0000      -0.162260        -4.4153 
  15   0.0000      -0.034212        -0.9310 
  16   0.0000      -0.033989        -0.9249 
  17   0.0000      -0.033932        -0.9233 
  18   0.0000       0.026204         0.7130 
  19   0.0000       0.050084         1.3629 
  20   0.0000       0.050414         1.3718 
  21   0.0000       0.050604         1.3770 
  22   0.0000       0.090446         2.4612 
  23   0.0000       0.090459         2.4615 
  24   0.0000       0.090971         2.4754 
  25   0.0000       0.091157         2.4805 
  26   0.0000       0.091297         2.4843 
  27   0.0000       0.126531         3.4431 
  28   0.0000       0.213663         5.8141 
  29   0.0000       0.214074         5.8253 
  30   0.0000       0.214275         5.8307 
  31   0.0000       0.315555         8.5867 
  32   0.0000       0.315577         8.5873 
  33   0.0000       0.326052         8.8723 
  34   0.0000       0.326269         8.8782 
  35   0.0000       0.326392         8.8816 
  36   0.0000       0.560350        15.2479 
  37   0.0000       0.843647        22.9568 
  38   0.0000       0.844498        22.9800 
  39   0.0000       0.844738        22.9865 
  40   0.0000       1.014897        27.6168 
  41   0.0000       1.015187        27.6246 
  42   0.0000       1.015935        27.6450 
  43   0.0000       1.015974        27.6461 
  44   0.0000       1.016251        27.6536 
  45   0.0000       1.016282        27.6544 
  46   0.0000       1.017219        27.6799 
  47   0.0000       1.261232        34.3199 
  48   0.0000       1.261286        34.3213 
  49   0.0000       1.270155        34.5627 
  50   0.0000       1.270613        34.5751 
  51   0.0000       1.270803        34.5803 
  52   0.0000       3.190396        86.8151 
  53   0.0000       3.190542        86.8191 
  54   0.0000       3.190793        86.8259 
  55   0.0000       3.196846        86.9906 
  56   0.0000       3.204822        87.2076 
  57   0.0000       3.205094        87.2150 
  58   0.0000       3.205292        87.2204 
  59   0.0000       3.223669        87.7205 
  60   0.0000       3.414392        92.9103 
  61   0.0000       3.415007        92.9271 
  62   0.0000       3.415409        92.9380 
  63   0.0000       4.094098       111.4061 
  64   0.0000       4.098717       111.5317 
  65   0.0000       4.098775       111.5333 
  66   0.0000       4.099120       111.5427 
  67   0.0000       4.100823       111.5891 
  68   0.0000       4.100860       111.5901 
  69   0.0000       4.107330       111.7661 
  70   0.0000       4.107738       111.7772 
  71   0.0000       4.107835       111.7799 
  72   0.0000       5.149242       140.1180 
  73   0.0000       5.149271       140.1188 
  74   0.0000       5.195969       141.3895 
  75   0.0000       5.196006       141.3905 
  76   0.0000       5.196103       141.3931 
  77   0.0000      10.518250       286.2161 
  78   0.0000      10.518897       286.2337 
  79   0.0000      10.519611       286.2532 
  80   0.0000      10.545467       286.9568 
  81   0.0000      10.546778       286.9924 
  82   0.0000      10.547835       287.0212 
  83   0.0000      10.580482       287.9096 
  84   0.0000      11.696750       318.2847 
  85   0.0000      11.713325       318.7358 
  86   0.0000      11.713390       318.7376 
  87   0.0000      11.713540       318.7416 
  88   0.0000      11.721513       318.9586 
  89   0.0000      11.721726       318.9644 
  90   0.0000      11.747930       319.6774 
  91   0.0000      11.748368       319.6893 
  92   0.0000      11.748556       319.6944 

                 SPIN DOWN ORBITALS
  NO   OCC          E(Eh)            E(eV) 
   0   1.0000    -276.986363     -7537.1821 
   1   1.0000     -32.468945      -883.5249 
   2   1.0000     -28.148135      -765.9497 
   3   1.0000     -28.147417      -765.9301 
   4   1.0000     -28.146442      -765.9036 
   5   1.0000      -3.531145       -96.0873 
   6   1.0000      -2.215123       -60.2766 
   7   1.0000      -2.212509       -60.2054 
   8   1.0000      -2.211155       -60.1686 
   9   1.0000      -0.140935        -3.8350 
  10   1.0000      -0.139065        -3.7841 
  11   1.0000      -0.137894        -3.7523 
  12   0.0000      -0.103043        -2.8040 
  13   0.0000      -0.019893        -0.5413 
  14   0.0000      -0.018649        -0.5075 
  15   0.0000       0.002564         0.0698 
  16   0.0000       0.002850         0.0776 
  17   0.0000       0.003546         0.0965 
  18   0.0000       0.020764         0.5650 
  19   0.0000       0.055600         1.5130 
  20   0.0000       0.055889         1.5208 
  21   0.0000       0.056536         1.5384 
  22   0.0000       0.083778         2.2797 
  23   0.0000       0.083818         2.2808 
  24   0.0000       0.083923         2.2837 
  25   0.0000       0.089453         2.4341 
  26   0.0000       0.089521         2.4360 
  27   0.0000       0.139728         3.8022 
  28   0.0000       0.231630         6.3030 
  29   0.0000       0.231936         6.3113 
  30   0.0000       0.232764         6.3338 
  31   0.0000       0.339626         9.2417 
  32   0.0000       0.339822         9.2470 
  33   0.0000       0.339961         9.2508 
  34   0.0000       0.359926         9.7941 
  35   0.0000       0.360119         9.7993 
  36   0.0000       0.583427        15.8758 
  37   0.0000       0.877064        23.8661 
  38   0.0000       0.878260        23.8987 
  39   0.0000       0.879241        23.9254 
  40   0.0000       1.042414        28.3655 
  41   0.0000       1.069212        29.0947 
  42   0.0000       1.069431        29.1007 
  43   0.0000       1.069777        29.1101 
  44   0.0000       1.070016        29.1166 
  45   0.0000       1.070203        29.1217 
  46   0.0000       1.071198        29.1488 
  47   0.0000       1.314487        35.7690 
  48   0.0000       1.314921        35.7808 
  49   0.0000       1.315159        35.7873 
  50   0.0000       1.366290        37.1787 
  51   0.0000       1.366772        37.1918 
  52   0.0000       3.223061        87.7040 
  53   0.0000       3.227744        87.8314 
  54   0.0000       3.253466        88.5313 
  55   0.0000       3.253604        88.5351 
  56   0.0000       3.254368        88.5559 
  57   0.0000       3.275437        89.1292 
  58   0.0000       3.275979        89.1439 
  59   0.0000       3.277725        89.1914 
  60   0.0000       3.445949        93.7690 
  61   0.0000       3.446554        93.7855 
  62   0.0000       3.446581        93.7863 
  63   0.0000       4.159251       113.1790 
  64   0.0000       4.159673       113.1904 
  65   0.0000       4.159969       113.1985 
  66   0.0000       4.160631       113.2165 
  67   0.0000       4.160928       113.2246 
  68   0.0000       4.163214       113.2868 
  69   0.0000       4.171277       113.5062 
  70   0.0000       4.172065       113.5277 
  71   0.0000       4.172768       113.5468 
  72   0.0000       5.190701       141.2462 
  73   0.0000       5.191488       141.2676 
  74   0.0000       5.192895       141.3059 
  75   0.0000       5.279325       143.6577 
  76   0.0000       5.280724       143.6958 
  77   0.0000      10.582035       287.9518 
  78   0.0000      10.585145       288.0365 
  79   0.0000      10.589785       288.1627 
  80   0.0000      10.595190       288.3098 
  81   0.0000      10.651115       289.8316 
  82   0.0000      10.652565       289.8710 
  83   0.0000      10.669639       290.3356 
  84   0.0000      11.748915       319.7042 
  85   0.0000      11.750256       319.7407 
  86   0.0000      11.752984       319.8150 
  87   0.0000      11.754456       319.8550 
  88   0.0000      11.754614       319.8593 
  89   0.0000      11.758583       319.9673 
  90   0.0000      11.759401       319.9896 
  91   0.0000      11.761922       320.0582 
  92   0.0000      11.782431       320.6162 

                    ********************************
                    * MULLIKEN POPULATION ANALYSIS *
                    ********************************

--------------------------------------------
MULLIKEN ATOMIC CHARGES AND SPIN POPULATIONS
--------------------------------------------
   0 Co:   -0.000000    3.000000
Sum of atomic charges         :   -0.0000000
Sum of atomic spin populations:    3.0000000

-----------------------------------------------------
MULLIKEN REDUCED ORBITAL CHARGES AND SPIN POPULATIONS
-----------------------------------------------------
CHARGE
  0 Cos       :     7.001193  s :     7.001193
      pz      :     3.999872  p :    11.999614
      px      :     3.999871
      py      :     3.999871
      dz2     :     1.687734  d :     7.998702
      dxz     :     1.316265
      dyz     :     1.762792
      dx2y2   :     1.840746
      dxy     :     1.391164
      f0      :     0.000017  f :     0.000386
      f+1     :     0.000089
      f-1     :     0.000062
      f+2     :     0.000026
      f-2     :     0.000086
      f+3     :     0.000081
      f-3     :     0.000025
      g0      :     0.000009  g :     0.000105
      g+1     :     0.000008
      g-1     :     0.000008
      g+2     :     0.000014
      g-2     :     0.000028
      g+3     :     0.000003
      g-3     :     0.000010
      g+4     :     0.000011
      g-4     :     0.000014

SPIN
  0 Cos       :     0.998788  s :     0.998788
      pz      :     0.000073  p :     0.000220
      px      :     0.000074
      py      :     0.000073
      dz2     :     0.312254  d :     2.001237
      dxz     :     0.683713
      dyz     :     0.237204
      dx2y2   :     0.159248
      dxy     :     0.608818
      f0      :    -0.000009  f :    -0.000220
      f+1     :    -0.000050
      f-1     :    -0.000036
      f+2     :    -0.000015
      f-2     :    -0.000049
      f+3     :    -0.000046
      f-3     :    -0.000014
      g0      :     0.000003  g :    -0.000025
      g+1     :    -0.000001
      g-1     :    -0.000004
      g+2     :    -0.000008
      g-2     :    -0.000013
      g+3     :    -0.000002
      g-3     :     0.000007
      g+4     :    -0.000004
      g-4     :    -0.000004


                     *******************************
                     * LOEWDIN POPULATION ANALYSIS *
                     *******************************

-------------------------------------------
LOEWDIN ATOMIC CHARGES AND SPIN POPULATIONS
-------------------------------------------
   0 Co:   -0.000000    3.000000

----------------------------------------------------
LOEWDIN REDUCED ORBITAL CHARGES AND SPIN POPULATIONS
----------------------------------------------------
CHARGE
  0 Cos       :     7.001193  s :     7.001193
      pz      :     3.999872  p :    11.999614
      px      :     3.999871
      py      :     3.999871
      dz2     :     1.687734  d :     7.998702
      dxz     :     1.316265
      dyz     :     1.762792
      dx2y2   :     1.840746
      dxy     :     1.391164
      f0      :     0.000017  f :     0.000386
      f+1     :     0.000089
      f-1     :     0.000062
      f+2     :     0.000026
      f-2     :     0.000086
      f+3     :     0.000081
      f-3     :     0.000025
      g0      :     0.000009  g :     0.000105
      g+1     :     0.000008
      g-1     :     0.000008
      g+2     :     0.000014
      g-2     :     0.000028
      g+3     :     0.000003
      g-3     :     0.000010
      g+4     :     0.000011
      g-4     :     0.000014

SPIN
  0 Cos       :     0.998788  s :     0.998788
      pz      :     0.000073  p :     0.000220
      px      :     0.000074
      py      :     0.000073
      dz2     :     0.312254  d :     2.001237
      dxz     :     0.683713
      dyz     :     0.237204
      dx2y2   :     0.159248
      dxy     :     0.608818
      f0      :    -0.000009  f :    -0.000220
      f+1     :    -0.000050
      f-1     :    -0.000036
      f+2     :    -0.000015
      f-2     :    -0.000049
      f+3     :    -0.000046
      f-3     :    -0.000014
      g0      :     0.000003  g :    -0.000025
      g+1     :    -0.000001
      g-1     :    -0.000004
      g+2     :    -0.000008
      g-2     :    -0.000013
      g+3     :    -0.000002
      g-3     :     0.000007
      g+4     :    -0.000004
      g-4     :    -0.000004


                      *****************************
                      * MAYER POPULATION ANALYSIS *
                      *****************************

  NA   - Mulliken gross atomic population
  ZA   - Total nuclear charge
  QA   - Mulliken gross atomic charge
  VA   - Mayer's total valence
  BVA  - Mayer's bonded valence
  FA   - Mayer's free valence

  ATOM       NA         ZA         QA         VA         BVA        FA
  0 Co    27.0000    27.0000    -0.0000     3.0075     0.0000     3.0075

  Mayer bond orders larger than 0.100000


-------
TIMINGS
-------

Total SCF time: 0 days 0 hours 0 min 4 sec 

Total time                  ....       4.956 sec
Sum of individual times     ....       4.826 sec  ( 97.4%)

Fock matrix formation       ....       4.480 sec  ( 90.4%)
  Split-RI-J                ....       3.430 sec  ( 76.6% of F)
  XC integration            ....       0.936 sec  ( 20.9% of F)
    Basis function eval.    ....       0.096 sec  ( 10.2% of XC)
    Density eval.           ....       0.070 sec  (  7.5% of XC)
    XC-Functional eval.     ....       0.023 sec  (  2.4% of XC)
    XC-Potential eval.      ....       0.196 sec  ( 20.9% of XC)
Diagonalization             ....       0.080 sec  (  1.6%)
Density matrix formation    ....       0.015 sec  (  0.3%)
Population analysis         ....       0.004 sec  (  0.1%)
Initial guess               ....       0.089 sec  (  1.8%)
Orbital Transformation      ....       0.000 sec  (  0.0%)
Orbital Orthonormalization  ....       0.000 sec  (  0.0%)
DIIS solution               ....       0.033 sec  (  0.7%)
Grid generation             ....       0.125 sec  (  2.5%)


-------------------------------------------------------------------------------
                          DFT DISPERSION CORRECTION                            
                                                                               
                              DFTD3 V3.1  Rev 1                                
                          USING Becke-Johnson damping                          
-------------------------------------------------------------------------------
The SCAN functional is recognized
Active option DFTDOPT                   ...         4   

molecular C6(AA) [au] = 532.775878 


            DFT-D V3
 parameters
 s6 scaling factor         :     1.0000 
 a1 scaling factor         :     0.5380 
 s8 scaling factor         :     0.0000 
 a2 scaling factor         :     5.4200 
 ad hoc parameters k1-k3   :    16.0000     1.3333    -4.0000 

 Edisp/kcal,au: -0.000000000000  -0.000000000000 
 E6   /kcal   :  -0.000000000 
 E8   /kcal   :  -0.000000000 
 % E8         :          -nan 

-------------------------   ----------------
Dispersion correction            0.000000000
-------------------------   ----------------


-------------------------   --------------------
FINAL SINGLE POINT ENERGY     -1382.873728111050
-------------------------   --------------------


                            ***************************************
                            *     ORCA property calculations      *
                            ***************************************

                                    ---------------------
                                    Active property flags
                                    ---------------------
   (+) Dipole Moment


------------------------------------------------------------------------------
                       ORCA ELECTRIC PROPERTIES CALCULATION
------------------------------------------------------------------------------

Dipole Moment Calculation                       ... on
Quadrupole Moment Calculation                   ... off
Polarizability Calculation                      ... off
GBWName                                         ... 67_Co.gbw
Electron density file                           ... 67_Co.scfp
The origin for moment calculation is the CENTER OF MASS  = ( 0.000000,  0.000000  0.000000)

-------------
DIPOLE MOMENT
-------------
                                X             Y             Z
Electronic contribution:     -0.00000       0.00000       0.00000
Nuclear contribution   :      0.00000       0.00000       0.00000
                        -----------------------------------------
Total Dipole Moment    :     -0.00000       0.00000       0.00000
                        -----------------------------------------
Magnitude (a.u.)       :      0.00000
Magnitude (Debye)      :      0.00000



--------------------
Rotational spectrum 
--------------------
 
Rotational constants in cm-1:     0.000000     0.000000     0.000000 
Rotational constants in MHz :     0.000000     0.000000     0.000000 

 Dipole components along the rotational axes: 
x,y,z [a.u.] :    -0.000000     0.000000     0.000000 
x,y,z [Debye]:    -0.000000     0.000000     0.000000 

 

Timings for individual modules:

Sum of individual times         ...        7.812 sec (=   0.130 min)
GTO integral calculation        ...        2.514 sec (=   0.042 min)  32.2 %
SCF iterations                  ...        5.299 sec (=   0.088 min)  67.8 %
                             ****ORCA TERMINATED NORMALLY****
TOTAL RUN TIME: 0 days 0 hours 0 minutes 8 seconds 389 msec
