
                                 *****************
                                 * O   R   C   A *
                                 *****************

           --- An Ab Initio, DFT and Semiempirical electronic structure package ---

                  #######################################################
                  #                        -***-                        #
                  #          Department of theory and spectroscopy      #
                  #               Directorship: Frank Neese             #
                  #        Max Planck Institute fuer Kohlenforschung    #
                  #                Kaiser Wilhelm Platz 1               #
                  #                 D-45470 Muelheim/Ruhr               #
                  #                      Germany                        #
                  #                                                     #
                  #                  All rights reserved                #
                  #                        -***-                        #
                  #######################################################


                         Program Version 4.2.0 -  RELEASE  -


 With contributions from (in alphabetic order):
   Daniel Aravena         : Magnetic Suceptibility
   Michael Atanasov       : Ab Initio Ligand Field Theory (pilot matlab implementation)
   Alexander A. Auer      : GIAO ZORA, VPT2
   Ute Becker             : Parallelization
   Giovanni Bistoni       : ED, misc. LED, open-shell LED, HFLED
   Martin Brehm           : Molecular dynamics
   Dmytro Bykov           : SCF Hessian
   Vijay G. Chilkuri      : MRCI spin determinant printing, contributions to CSF-ICE
   Dipayan Datta          : RHF DLPNO-CCSD density
   Achintya Kumar Dutta   : EOM-CC, STEOM-CC
   Dmitry Ganyushin       : Spin-Orbit,Spin-Spin,Magnetic field MRCI
   Miquel Garcia          : C-PCM Hessian, Gaussian charge scheme
   Yang Guo               : DLPNO-NEVPT2, CIM, IAO-localization
   Andreas Hansen         : Spin unrestricted coupled pair/coupled cluster methods
   Benjamin Helmich-Paris : CASSCF linear response (MC-RPA)
   Lee Huntington         : MR-EOM, pCC
   Robert Izsak           : Overlap fitted RIJCOSX, COSX-SCS-MP3, EOM
   Christian Kollmar      : KDIIS, OOCD, Brueckner-CCSD(T), CCSD density
   Simone Kossmann        : Meta GGA functionals, TD-DFT gradient, OOMP2, MP2 Hessian
   Martin Krupicka        : AUTO-CI
   Lucas Lang             : DCDCAS
   Dagmar Lenk            : GEPOL surface, SMD
   Dimitrios Liakos       : Extrapolation schemes; Compound Job, initial MDCI parallelization
   Dimitrios Manganas     : Further ROCIS development; embedding schemes
   Dimitrios Pantazis     : SARC Basis sets
   Taras Petrenko         : DFT Hessian,TD-DFT gradient, ASA, ECA, R-Raman, ABS, FL, XAS/XES, NRVS
   Peter Pinski           : DLPNO-MP2, DLPNO-MP2 Gradient
   Christoph Reimann      : Effective Core Potentials
   Marius Retegan         : Local ZFS, SOC
   Christoph Riplinger    : Optimizer, TS searches, QM/MM, DLPNO-CCSD(T), (RO)-DLPNO pert. Triples
   Tobias Risthaus        : Range-separated hybrids, TD-DFT gradient, RPA, STAB
   Michael Roemelt        : Original ROCIS implementation
   Masaaki Saitow         : Open-shell DLPNO-CCSD energy and density
   Barbara Sandhoefer     : DKH picture change effects
   Avijit Sen             : IP-ROCIS
   Kantharuban Sivalingam : CASSCF convergence, NEVPT2, FIC-MRCI
   Bernardo de Souza      : ESD, SOC TD-DFT
   Georgi Stoychev        : AutoAux, RI-MP2 NMR
   Willem Van den Heuvel  : Paramagnetic NMR
   Boris Wezisla          : Elementary symmetry handling
   Frank Wennmohs         : Technical directorship


 We gratefully acknowledge several colleagues who have allowed us to
 interface, adapt or use parts of their codes:
   Stefan Grimme, W. Hujo, H. Kruse,             : VdW corrections, initial TS optimization,
                  C. Bannwarth                     DFT functionals, gCP, sTDA/sTD-DF
   Ed Valeev, F. Pavosevic, A. Kumar             : LibInt (2-el integral package), F12 methods
   Garnet Chan, S. Sharma, J. Yang, R. Olivares  : DMRG
   Ulf Ekstrom                                   : XCFun DFT Library
   Mihaly Kallay                                 : mrcc  (arbitrary order and MRCC methods)
   Andreas Klamt, Michael Diedenhofen            : otool_cosmo (COSMO solvation model)
   Jiri Pittner, Ondrej Demel                    : Mk-CCSD
   Frank Weinhold                                : gennbo (NPA and NBO analysis)
   Christopher J. Cramer and Donald G. Truhlar   : smd solvation model
   Lars Goerigk                                  : TD-DFT with DH, B97 family of functionals
   V. Asgeirsson, H. Jonsson                     : NEB implementation
   FAccTs GmbH                                   : IRC, NEB, NEB-TS, Multilevel, MM, QM/MM, CI optimization
   S Lehtola, MJT Oliveira, MAL Marques          : LibXC Library


 Your calculation uses the libint2 library for the computation of 2-el integrals
 For citations please refer to: http://libint.valeyev.net

 Your ORCA version has been built with support for libXC version: 4.2.3
 For citations please refer to: https://tddft.org/programs/libxc/

 This ORCA versions uses:
   CBLAS   interface :  Fast vector & matrix operations
   LAPACKE interface :  Fast linear algebra routines
   SCALAPACK package :  Parallel linear algebra routines


Your calculation utilizes the atom-pairwise dispersion correction
with the Becke-Johnson damping scheme (D3BJ)
Cite in your paper:
S.Grimme, S.Ehrlich, L.Goerigk, J Comput Chem, (2011), 32, 1456–1465 
S.Grimme, J.Antony, S.Ehrlich and H.Krieg, J.Chem.Phys., 132, (2010), 154104 
   

----- Orbital basis set information -----
Your calculation utilizes the basis: aug-cc-pVTZ 
    H, B-Ne : Obtained from the ccRepo (grant-hill.group.shef.ac.uk/ccrepo) Feb. 2017
              R. A. Kendall, T. H. Dunning, Jr., R. J. Harrison, J. Chem. Phys. 96, 6796 (1992)
         He : Obtained from the ccRepo (grant-hill.group.shef.ac.uk/ccrepo) Feb. 2017
              D. E. Woon, T. H. Dunning, Jr., J. Chem. Phys. 100, 2975 (1994)
  Li-Be, Na : Obtained from the ccRepo (grant-hill.group.shef.ac.uk/ccrepo) Feb. 2017
              B. P. Prascher, D. E. Woon, K. A. Peterson, T. H. Dunning, Jr., A. K. Wilson, Theor. Chem. Acc. 128, 69 (2011)
         Mg : Obtained from the Peterson Research Group Website (tyr0.chem.wsu.edu/~kipeters) Feb. 2017
              B. P. Prascher, D. E. Woon, K. A. Peterson, T. H. Dunning, Jr., A. K. Wilson, Theor. Chem. Acc. 128, 69 (2011)
      Al-Ar : Obtained from the ccRepo (grant-hill.group.shef.ac.uk/ccrepo) Feb. 2017
              D. E. Woon, T. H. Dunning, Jr., J. Chem. Phys. 98, 1358 (1993)
      Sc-Zn : Obtained from the ccRepo (grant-hill.group.shef.ac.uk/ccrepo) Feb. 2017
              N. B. Balabanov, K. A. Peterson, J. Chem. Phys. 123, 064107 (2005)
              N. B. Balabanov, K. A. Peterson, J. Chem. Phys. 125, 074110 (2006)
      Ga-Kr : Obtained from the ccRepo (grant-hill.group.shef.ac.uk/ccrepo) Feb. 2017
              A. K. Wilson, D. E. Woon, K. A. Peterson, T. H. Dunning, Jr., J. Chem. Phys. 110, 7667 (1999)
     Ag, Au : Obtained from the Peterson Research Group Website (tyr0.chem.wsu.edu/~kipeters) Feb. 2017
              K. A. Peterson, C. Puzzarini, Theor. Chem. Acc. 114, 283 (2005)

----- AuxJ basis set information -----
Your calculation utilizes the auxiliary basis: def2/J
   F. Weigend, Phys. Chem. Chem. Phys. 8, 1057 (2006).

================================================================================
                                        WARNINGS
                       Please study these warnings very carefully!
================================================================================


WARNING: The SCAN functional is very grid-sensitive!
         Use at least GRID5 and a higher intacc

INFO   : the flag for use of LIBINT has been found!

================================================================================
                                       INPUT FILE
================================================================================
NAME = 70_Zn.in
|  1> #
|  2> # 70_Zn scanfunc/aug-cc-pvtz
|  3> #
|  4> ! scanfunc d3bj aug-cc-pvtz def2/j grid4 nofinalgrid
|  5> 
|  6> *xyz 0 1
|  7> Zn 0.0 0.0 0.0
|  8> *
|  9> 
| 10> %pal
| 11> nprocs 24
| 12> end
| 13> 
| 14> 
| 15>                          ****END OF INPUT****
================================================================================

                       ****************************
                       * Single Point Calculation *
                       ****************************

---------------------------------
CARTESIAN COORDINATES (ANGSTROEM)
---------------------------------
  Zn     0.000000    0.000000    0.000000

----------------------------
CARTESIAN COORDINATES (A.U.)
----------------------------
  NO LB      ZA    FRAG     MASS         X           Y           Z
   0 Zn   30.0000    0    65.380    0.000000    0.000000    0.000000

--------------------------------
INTERNAL COORDINATES (ANGSTROEM)
--------------------------------
 Zn     0   0   0     0.000000000000     0.00000000     0.00000000

---------------------------
INTERNAL COORDINATES (A.U.)
---------------------------
 Zn     0   0   0     0.000000000000     0.00000000     0.00000000

---------------------
BASIS SET INFORMATION
---------------------
There are 1 groups of distinct atoms

 Group   1 Type Zn  : 116s77p23d3f2g contracted to 8s7p5d3f2g pattern {19191919191911/151515151511/77711/111/11}

Atom   0Zn   basis set group =>   1
---------------------------------
AUXILIARY/J BASIS SET INFORMATION
---------------------------------
There are 1 groups of distinct atoms

 Group   1 Type Zn  : 19s5p5d3f3g contracted to 8s5p5d2f3g pattern {121111111/11111/11111/21/111}

Atom   0Zn   basis set group =>   1


           ************************************************************
           *        Program running with 24 parallel MPI-processes    *
           *              working on a common directory               *
           ************************************************************
------------------------------------------------------------------------------
                           ORCA GTO INTEGRAL CALCULATION
                           -- RI-GTO INTEGRALS CHOSEN --
------------------------------------------------------------------------------

                         BASIS SET STATISTICS AND STARTUP INFO

Gaussian basis set:
 # of primitive gaussian shells          ...  221
 # of primitive gaussian functions       ...  501
 # of contracted shells                  ...   25
 # of contracted basis functions         ...   93
 Highest angular momentum                ...    4
 Maximum contraction depth               ...   19
Auxiliary gaussian basis set:
 # of primitive gaussian shells          ...   35
 # of primitive gaussian functions       ...  107
 # of contracted shells                  ...   23
 # of contracted aux-basis functions     ...   89
 Highest angular momentum                ...    4
 Maximum contraction depth               ...   12
Ratio of auxiliary to basis functions    ...  0.96
Integral package used                  ... LIBINT
 One Electron integrals                  ... done
 Ordering auxiliary basis shells         ... done
 Integral threshhold             Thresh  ...  1.000e-10
 Primitive cut-off               TCut    ...  1.000e-11
 Pre-screening matrix                    ... done
 Shell pair data                         ... 
 Ordering of the shell pairs             ... done (   0.000 sec) 325 of 325 pairs
 Determination of significant pairs      ... done (   0.000 sec)
 Creation of shell pair data             ... done (   0.001 sec)
 Storage of shell pair data              ... done (   0.021 sec)
 Shell pair data done in (   0.022 sec)
 Computing two index integrals           ... done
 Cholesky decomposition of the V-matrix  ... done


Timings:
 Total evaluation time                   ...   2.115 sec (  0.035 min)
 One electron matrix time                ...   0.030 sec (  0.001 min) =  1.4%
 Schwartz matrix evaluation time         ...   2.036 sec (  0.034 min) = 96.2%
 Two index repulsion integral time       ...   0.000 sec (  0.000 min) =  0.0%
 Cholesky decomposition of V             ...   0.001 sec (  0.000 min) =  0.0%
 Three index repulsion integral time     ...   0.000 sec (  0.000 min) =  0.0%



           ************************************************************
           *        Program running with 24 parallel MPI-processes    *
           *              working on a common directory               *
           ************************************************************
-------------------------------------------------------------------------------
                                 ORCA SCF
-------------------------------------------------------------------------------

------------
SCF SETTINGS
------------
Hamiltonian:
 Density Functional     Method          .... DFT(GTOs)
 Exchange Functional    Exchange        .... SCAN
 Correlation Functional Correlation     .... SCAN
 Gradients option       PostSCFGGA      .... off
   Density functional embedding theory  .... OFF
   NL short-range parameter             ....  6.400000
 RI-approximation to the Coulomb term is turned on
   Number of auxiliary basis functions  .... 89


General Settings:
 Integral files         IntName         .... 70_Zn
 Hartree-Fock type      HFTyp           .... RHF
 Total Charge           Charge          ....    0
 Multiplicity           Mult            ....    1
 Number of Electrons    NEL             ....   30
 Basis Dimension        Dim             ....   93
 Nuclear Repulsion      ENuc            ....      0.0000000000 Eh

Convergence Acceleration:
 DIIS                   CNVDIIS         .... on
   Start iteration      DIISMaxIt       ....    12
   Startup error        DIISStart       ....  0.200000
   # of expansion vecs  DIISMaxEq       ....     5
   Bias factor          DIISBfac        ....   1.050
   Max. coefficient     DIISMaxC        ....  10.000
 Newton-Raphson         CNVNR           .... off
 SOSCF                  CNVSOSCF        .... off
 Level Shifting         CNVShift        .... on
   Level shift para.    LevelShift      ....    0.2500
   Turn off err/grad.   ShiftErr        ....    0.0010
 Zerner damping         CNVZerner       .... off
 Static damping         CNVDamp         .... on
   Fraction old density DampFac         ....    0.7000
   Max. Damping (<1)    DampMax         ....    0.9800
   Min. Damping (>=0)   DampMin         ....    0.0000
   Turn off err/grad.   DampErr         ....    0.1000
 Fernandez-Rico         CNVRico         .... off

SCF Procedure:
 Maximum # iterations   MaxIter         ....   125
 SCF integral mode      SCFMode         .... Direct
   Integral package                     .... LIBINT
 Reset frequency        DirectResetFreq ....    20
 Integral Threshold     Thresh          ....  1.000e-10 Eh
 Primitive CutOff       TCut            ....  1.000e-11 Eh

Convergence Tolerance:
 Convergence Check Mode ConvCheckMode   .... Total+1el-Energy
 Convergence forced     ConvForced      .... 0
 Energy Change          TolE            ....  1.000e-06 Eh
 1-El. energy change                    ....  1.000e-03 Eh
 DIIS Error             TolErr          ....  1.000e-06


Diagonalization of the overlap matrix:
Smallest eigenvalue                        ... 6.540e-04
Time for diagonalization                   ...    0.003 sec
Threshold for overlap eigenvalues          ... 1.000e-08
Number of eigenvalues below threshold      ... 0
Time for construction of square roots      ...    0.002 sec
Total time needed                          ...    0.005 sec

-------------------
DFT GRID GENERATION
-------------------

General Integration Accuracy     IntAcc      ...  4.670
Radial Grid Type                 RadialGrid  ... Gauss-Chebyshev
Angular Grid (max. acc.)         AngularGrid ... Lebedev-302
Angular grid pruning method      GridPruning ... 3 (G Style)
Weight generation scheme         WeightScheme... Becke
Basis function cutoff            BFCut       ...    1.0000e-10
Integration weight cutoff        WCut        ...    1.0000e-14
Grids for H and He will be reduced by one unit

# of grid points (after initial pruning)     ...   9640 (   0.0 sec)
# of grid points (after weights+screening)   ...   9640 (   0.0 sec)
Grid point division into batches done        ...    0.1 sec
Reduced shell lists constructed in    0.1 sec

Total number of grid points                  ...     9640
Total number of batches                      ...      151
Average number of points per batch           ...       63
Average number of grid points per atom       ...     9640
Average number of shells per batch           ...     7.50 (30.00%)
Average number of basis functions per batch  ...    15.25 (16.40%)
Average number of large shells per batch     ...     3.75 (50.00%)
Average number of large basis fcns per batch ...     7.75 (50.82%)
Maximum spatial batch extension              ...  22.45, 20.42, 18.83 au
Average spatial batch extension              ...   0.86,  0.81,  0.78 au

Time for grid setup =    0.122 sec

------------------------------
INITIAL GUESS: MODEL POTENTIAL
------------------------------
Loading Hartree-Fock densities                     ... done
Calculating cut-offs                               ... done
Setting up the integral package                    ... done
Initializing the effective Hamiltonian             ... done
Starting the Coulomb interaction                   ... done (   0.0 sec)
Reading the grid                                   ... done
Mapping shells                                     ... done
Starting the XC term evaluation                    ... done (   0.0 sec)
  promolecular density results
     # of electrons  =     30.000011373
     EX              =    -79.068751145
     EC              =     -0.545352974
     EX+EC           =    -79.614104119
Transforming the Hamiltonian                       ... done (   0.0 sec)
Diagonalizing the Hamiltonian                      ... done (   0.0 sec)
Back transforming the eigenvectors                 ... done (   0.0 sec)
Now organizing SCF variables                       ... done
                      ------------------
                      INITIAL GUESS DONE (   0.2 sec)
                      ------------------
--------------
SCF ITERATIONS
--------------
ITER       Energy         Delta-E        Max-DP      RMS-DP      [F,P]     Damp
               ***  Starting incremental Fock matrix formation  ***
  0  -1779.5272346954   0.000000000000 0.14701236  0.00437144  0.5496388 0.7000
  1  -1779.5781424040  -0.050907708541 0.04084440  0.00135329  0.1241436 0.7000
                               ***Turning on DIIS***
  2  -1779.5970820535  -0.018939649490 0.05955472  0.00212115  0.0745085 0.0000
  3  -1779.6483851250  -0.051303071533 0.01650513  0.00050545  0.0414892 0.0000
  4  -1779.6492180636  -0.000832938573 0.00845881  0.00024416  0.0102675 0.0000
  5  -1779.6492642489  -0.000046185314 0.00310130  0.00005180  0.0008439 0.0000
  6  -1779.6492657545  -0.000001505656 0.00121878  0.00001738  0.0002091 0.0000
                 **** Energy Check signals convergence ****

               *****************************************************
               *                     SUCCESS                       *
               *           SCF CONVERGED AFTER   7 CYCLES          *
               *****************************************************


----------------
TOTAL SCF ENERGY
----------------

Total Energy       :        -1779.64926595 Eh          -48426.71849 eV

Components:
Nuclear Repulsion  :            0.00000000 Eh               0.00000 eV
Electronic Energy  :        -1779.64926595 Eh          -48426.71849 eV
One Electron Energy:        -2483.57966430 Eh          -67581.63845 eV
Two Electron Energy:          703.93039836 Eh           19154.91996 eV

Virial components:
Potential Energy   :        -3558.03747597 Eh          -96819.12191 eV
Kinetic Energy     :         1778.38821002 Eh           48392.40342 eV
Virial Ratio       :            2.00070910


DFT components:
N(Alpha)           :       15.000006975891 electrons
N(Beta)            :       15.000006975891 electrons
N(Total)           :       30.000013951782 electrons
E(X)               :      -69.934595693953 Eh       
E(C)               :       -1.422019863295 Eh       
E(XC)              :      -71.356615557248 Eh       
DFET-embed. en.    :        0.000000000000 Eh       

---------------
SCF CONVERGENCE
---------------

  Last Energy change         ...   -1.9071e-07  Tolerance :   1.0000e-06
  Last MAX-Density change    ...    2.7302e-04  Tolerance :   1.0000e-05
  Last RMS-Density change    ...    3.2142e-06  Tolerance :   1.0000e-06
  Last DIIS Error            ...    1.8957e-05  Tolerance :   1.0000e-06

             **** THE GBW FILE WAS UPDATED (70_Zn.gbw) ****
             **** DENSITY FILE WAS UPDATED (70_Zn.scfp) ****
             **** ENERGY FILE WAS UPDATED (70_Zn.en.tmp) ****
             **** THE GBW FILE WAS UPDATED (70_Zn.gbw) ****
             **** DENSITY FILE WAS UPDATED (70_Zn.scfp) ****
----------------
ORBITAL ENERGIES
----------------

  NO   OCC          E(Eh)            E(eV) 
   0   2.0000    -346.766109     -9435.9856 
   1   2.0000     -41.990256     -1142.6129 
   2   2.0000     -36.975429     -1006.1526 
   3   2.0000     -36.975429     -1006.1526 
   4   2.0000     -36.975429     -1006.1526 
   5   2.0000      -4.776742      -129.9818 
   6   2.0000      -3.141706       -85.4902 
   7   2.0000      -3.141706       -85.4902 
   8   2.0000      -3.141706       -85.4902 
   9   2.0000      -0.396332       -10.7847 
  10   2.0000      -0.396332       -10.7847 
  11   2.0000      -0.396332       -10.7847 
  12   2.0000      -0.396332       -10.7847 
  13   2.0000      -0.396332       -10.7847 
  14   2.0000      -0.225985        -6.1494 
  15   0.0000      -0.025773        -0.7013 
  16   0.0000      -0.025773        -0.7013 
  17   0.0000      -0.025773        -0.7013 
  18   0.0000       0.106920         2.9094 
  19   0.0000       0.126798         3.4503 
  20   0.0000       0.126799         3.4504 
  21   0.0000       0.126829         3.4512 
  22   0.0000       0.204632         5.5683 
  23   0.0000       0.227250         6.1838 
  24   0.0000       0.227250         6.1838 
  25   0.0000       0.227250         6.1838 
  26   0.0000       0.227250         6.1838 
  27   0.0000       0.227250         6.1838 
  28   0.0000       0.300080         8.1656 
  29   0.0000       0.300080         8.1656 
  30   0.0000       0.300087         8.1658 
  31   0.0000       0.741863        20.1871 
  32   0.0000       0.817194        22.2370 
  33   0.0000       0.817194        22.2370 
  34   0.0000       0.817194        22.2370 
  35   0.0000       0.817194        22.2370 
  36   0.0000       0.817194        22.2370 
  37   0.0000       1.015827        27.6421 
  38   0.0000       1.015827        27.6421 
  39   0.0000       1.015828        27.6421 
  40   0.0000       1.674441        45.5639 
  41   0.0000       1.674441        45.5639 
  42   0.0000       1.674441        45.5639 
  43   0.0000       1.674441        45.5639 
  44   0.0000       1.674441        45.5639 
  45   0.0000       1.674441        45.5639 
  46   0.0000       1.674441        45.5639 
  47   0.0000       2.814531        76.5873 
  48   0.0000       2.814531        76.5873 
  49   0.0000       2.814531        76.5873 
  50   0.0000       2.814531        76.5873 
  51   0.0000       2.814531        76.5873 
  52   0.0000       4.241785       115.4248 
  53   0.0000       4.333091       117.9094 
  54   0.0000       4.333091       117.9094 
  55   0.0000       4.333091       117.9094 
  56   0.0000       4.995567       135.9363 
  57   0.0000       4.995567       135.9363 
  58   0.0000       4.995567       135.9363 
  59   0.0000       4.995567       135.9363 
  60   0.0000       4.995567       135.9363 
  61   0.0000       4.995567       135.9363 
  62   0.0000       4.995567       135.9363 
  63   0.0000       7.461059       203.0257 
  64   0.0000       7.461059       203.0257 
  65   0.0000       7.461059       203.0257 
  66   0.0000       7.461059       203.0257 
  67   0.0000       7.461059       203.0257 
  68   0.0000       7.461059       203.0257 
  69   0.0000       7.461059       203.0257 
  70   0.0000       7.461059       203.0257 
  71   0.0000       7.461059       203.0257 
  72   0.0000      10.285473       279.8819 
  73   0.0000      10.285473       279.8819 
  74   0.0000      10.285473       279.8819 
  75   0.0000      10.285473       279.8819 
  76   0.0000      10.285473       279.8819 
  77   0.0000      16.029248       436.1780 
  78   0.0000      16.029248       436.1780 
  79   0.0000      16.029248       436.1780 
  80   0.0000      16.029248       436.1780 
  81   0.0000      16.029248       436.1780 
  82   0.0000      16.029248       436.1780 
  83   0.0000      16.029248       436.1780 
  84   0.0000      19.927221       542.2472 
  85   0.0000      19.927221       542.2472 
  86   0.0000      19.927221       542.2472 
  87   0.0000      19.927221       542.2472 
  88   0.0000      19.927221       542.2472 
  89   0.0000      19.927221       542.2472 
  90   0.0000      19.927221       542.2472 
  91   0.0000      19.927221       542.2472 
  92   0.0000      19.927221       542.2472 

                    ********************************
                    * MULLIKEN POPULATION ANALYSIS *
                    ********************************

-----------------------
MULLIKEN ATOMIC CHARGES
-----------------------
   0 Zn:    0.000000
Sum of atomic charges:    0.0000000

--------------------------------
MULLIKEN REDUCED ORBITAL CHARGES
--------------------------------
  0 Zns       :     8.000000  s :     8.000000
      pz      :     4.000000  p :    12.000000
      px      :     4.000000
      py      :     4.000000
      dz2     :     2.000000  d :    10.000000
      dxz     :     2.000000
      dyz     :     2.000000
      dx2y2   :     2.000000
      dxy     :     2.000000
      f0      :     0.000000  f :     0.000000
      f+1     :     0.000000
      f-1     :     0.000000
      f+2     :     0.000000
      f-2     :     0.000000
      f+3     :     0.000000
      f-3     :     0.000000
      g0      :     0.000000  g :     0.000000
      g+1     :     0.000000
      g-1     :     0.000000
      g+2     :     0.000000
      g-2     :     0.000000
      g+3     :     0.000000
      g-3     :     0.000000
      g+4     :     0.000000
      g-4     :     0.000000


                     *******************************
                     * LOEWDIN POPULATION ANALYSIS *
                     *******************************

----------------------
LOEWDIN ATOMIC CHARGES
----------------------
   0 Zn:    0.000000

-------------------------------
LOEWDIN REDUCED ORBITAL CHARGES
-------------------------------
  0 Zns       :     8.000000  s :     8.000000
      pz      :     4.000000  p :    12.000000
      px      :     4.000000
      py      :     4.000000
      dz2     :     2.000000  d :    10.000000
      dxz     :     2.000000
      dyz     :     2.000000
      dx2y2   :     2.000000
      dxy     :     2.000000
      f0      :     0.000000  f :     0.000000
      f+1     :     0.000000
      f-1     :     0.000000
      f+2     :     0.000000
      f-2     :     0.000000
      f+3     :     0.000000
      f-3     :     0.000000
      g0      :     0.000000  g :     0.000000
      g+1     :     0.000000
      g-1     :     0.000000
      g+2     :     0.000000
      g-2     :     0.000000
      g+3     :     0.000000
      g-3     :     0.000000
      g+4     :     0.000000
      g-4     :     0.000000


                      *****************************
                      * MAYER POPULATION ANALYSIS *
                      *****************************

  NA   - Mulliken gross atomic population
  ZA   - Total nuclear charge
  QA   - Mulliken gross atomic charge
  VA   - Mayer's total valence
  BVA  - Mayer's bonded valence
  FA   - Mayer's free valence

  ATOM       NA         ZA         QA         VA         BVA        FA
  0 Zn    30.0000    30.0000    -0.0000     0.0000     0.0000     0.0000

  Mayer bond orders larger than 0.100000


CleanUpVectors: The p-vectors have cracked symmetry
CleanUpVectors: The p-vectors have cracked symmetry
CleanUpVectors: The p-vectors have cracked symmetry
CleanUpVectors: The p-vectors have cracked symmetry
CleanUpVectors: The p-vectors have cracked symmetry
CleanUpVectors: The p-vectors have cracked symmetry
--------------------------
ATOM BASIS FOR ELEMENT Zn
--------------------------
 NewGTO Zn
 S 113
    1    5820021.000000000000         0.000008549243
    2     871523.400000000023         0.000066474434
    3     198335.000000000000         0.000349497954
    4      56176.309999999998         0.001473839399
    5      18325.820000000000         0.005338356798
    6       6614.955000000000         0.017127165977
    7       2579.199000000000         0.048941095679
    8       1068.849000000000         0.121794011394
    9        465.104500000000         0.247660143229
   10        210.413000000000         0.358244898353
   11         97.616290000000         0.279818804662
   12         44.380200000000         0.068575254241
   13         21.423080000000        -0.001311098582
   14         10.308910000000         0.001914010608
   15          4.553645000000        -0.000875926397
   16          2.132821000000         0.000374011477
   17          0.929697000000        -0.000140140603
   18          0.192147000000         0.000047571539
   19          0.087595000000        -0.000036427283
   20    5820021.000000000000        -0.000000001134
   21     871523.400000000023        -0.000000008815
   22     198335.000000000000        -0.000000046373
   23      56176.309999999998        -0.000000195761
   24      18325.820000000000        -0.000000711898
   25       6614.955000000000        -0.000002305414
   26       2579.199000000000        -0.000006747480
   27       1068.849000000000        -0.000017703673
   28        465.104500000000        -0.000040394550
   29        210.413000000000        -0.000073860703
   30         97.616290000000        -0.000084105672
   31         44.380200000000         0.000019465852
   32         21.423080000000         0.000225214264
   33         10.308910000000         0.000214980848
   34          4.553645000000         0.000038415150
   35          2.132821000000        -0.000000921678
   36          0.929697000000         0.000000907014
   37    5820021.000000000000        -0.000000000077
   38     871523.400000000023        -0.000000000598
   39     198335.000000000000        -0.000000003144
   40      56176.309999999998        -0.000000013290
   41      18325.820000000000        -0.000000048286
   42       6614.955000000000        -0.000000156817
   43       2579.199000000000        -0.000000459349
   44       1068.849000000000        -0.000001216240
   45        465.104500000000        -0.000002806120
   46        210.413000000000        -0.000005316841
   47         97.616290000000        -0.000006354970
   48         44.380200000000         0.000001551589
   49         21.423080000000         0.000025090400
   50         10.308910000000         0.000035507350
   51          4.553645000000        -0.000012616810
   52          2.132821000000        -0.000056290899
   53          0.929697000000        -0.000029080340
   54          0.192147000000        -0.000001105607
   55    5820021.000000000000        -0.000000000169
   56     871523.400000000023        -0.000000001317
   57     198335.000000000000        -0.000000006921
   58      56176.309999999998        -0.000000029264
   59      18325.820000000000        -0.000000106283
   60       6614.955000000000        -0.000000345407
   61       2579.199000000000        -0.000001011491
   62       1068.849000000000        -0.000002682482
   63        465.104500000000        -0.000006194064
   64        210.413000000000        -0.000011798657
   65         97.616290000000        -0.000014167591
   66         44.380200000000         0.000003422354
   67         21.423080000000         0.000059099002
   68         10.308910000000         0.000087357428
   69          4.553645000000        -0.000037919792
   70          2.132821000000        -0.000182331733
   71          0.929697000000        -0.000188279574
   72          0.192147000000         0.000264146686
   73          0.087595000000         0.000482827786
   74    5820021.000000000000         0.000000000053
   75     871523.400000000023         0.000000000423
   76     198335.000000000000         0.000000002144
   77      56176.309999999998         0.000000009511
   78      18325.820000000000         0.000000032508
   79       6614.955000000000         0.000000113792
   80       2579.199000000000         0.000000304367
   81       1068.849000000000         0.000000901547
   82        465.104500000000         0.000001810482
   83        210.413000000000         0.000004177383
   84         97.616290000000         0.000003484507
   85         44.380200000000         0.000001598625
   86         21.423080000000        -0.000025805391
   87         10.308910000000        -0.000020359947
   88          4.553645000000         0.000001731359
   89          2.132821000000         0.000132104579
   90          0.929697000000        -0.000079845155
   91          0.192147000000        -0.000165393664
   92          0.087595000000         0.000135498541
   93    5820021.000000000000        -0.000000000332
   94     871523.400000000023        -0.000000002597
   95     198335.000000000000        -0.000000013564
   96      56176.309999999998        -0.000000057814
   97      18325.820000000000        -0.000000207881
   98       6614.955000000000        -0.000000684177
   99       2579.199000000000        -0.000001975006
  100       1068.849000000000        -0.000005341759
  101        465.104500000000        -0.000012092331
  102        210.413000000000        -0.000023937320
  103         97.616290000000        -0.000027445642
  104         44.380200000000         0.000003053827
  105         21.423080000000         0.000137626979
  106         10.308910000000         0.000244582754
  107          4.553645000000        -0.000372437442
  108          2.132821000000        -0.000655466564
  109          0.929697000000         0.001152271429
  110          0.192147000000        -0.000856300534
  111          0.087595000000         0.000248474346
  112          0.037702000000        -0.000519139569
  113          0.016230000000         0.000167906028
 S 113
    1    5820021.000000000000         0.000000003666
    2     871523.400000000023         0.000000028506
    3     198335.000000000000         0.000000149872
    4      56176.309999999998         0.000000632011
    5      18325.820000000000         0.000002289191
    6       6614.955000000000         0.000007344462
    7       2579.199000000000         0.000020986894
    8       1068.849000000000         0.000052227641
    9        465.104500000000         0.000106201487
   10        210.413000000000         0.000153622381
   11         97.616290000000         0.000119991747
   12         44.380200000000         0.000029406403
   13         21.423080000000        -0.000000562225
   14         10.308910000000         0.000000820765
   15          4.553645000000        -0.000000375614
   16          2.132821000000         0.000000160383
   17    5820021.000000000000         0.000002639392
   18     871523.400000000023         0.000020521694
   19     198335.000000000000         0.000107956935
   20      56176.309999999998         0.000455735427
   21      18325.820000000000         0.001657313346
   22       6614.955000000000         0.005367052029
   23       2579.199000000000         0.015708275497
   24       1068.849000000000         0.041214522214
   25        465.104500000000         0.094039359401
   26        210.413000000000         0.171949266306
   27         97.616290000000         0.195799767258
   28         44.380200000000        -0.045316911550
   29         21.423080000000        -0.524303530260
   30         10.308910000000        -0.500479922094
   31          4.553645000000        -0.089431275742
   32          2.132821000000         0.002145686316
   33          0.929697000000        -0.002111546476
   34          0.192147000000         0.000413287116
   35          0.087595000000        -0.000320889106
   36    5820021.000000000000        -0.000000001020
   37     871523.400000000023        -0.000000007938
   38     198335.000000000000        -0.000000041726
   39      56176.309999999998        -0.000000176363
   40      18325.820000000000        -0.000000640768
   41       6614.955000000000        -0.000002081022
   42       2579.199000000000        -0.000006095736
   43       1068.849000000000        -0.000016139972
   44        465.104500000000        -0.000037238288
   45        210.413000000000        -0.000070556514
   46         97.616290000000        -0.000084332878
   47         44.380200000000         0.000020590175
   48         21.423080000000         0.000332959191
   49         10.308910000000         0.000471196088
   50          4.553645000000        -0.000167429891
   51          2.132821000000        -0.000747001717
   52          0.929697000000        -0.000385907213
   53          0.192147000000        -0.000014671831
   54          0.087595000000         0.000006829279
   55    5820021.000000000000        -0.000000001298
   56     871523.400000000023        -0.000000010097
   57     198335.000000000000        -0.000000053059
   58      56176.309999999998        -0.000000224345
   59      18325.820000000000        -0.000000814797
   60       6614.955000000000        -0.000002647989
   61       2579.199000000000        -0.000007754368
   62       1068.849000000000        -0.000020564645
   63        465.104500000000        -0.000047485402
   64        210.413000000000        -0.000090451762
   65         97.616290000000        -0.000108612667
   66         44.380200000000         0.000026236712
   67         21.423080000000         0.000453069267
   68         10.308910000000         0.000669706164
   69          4.553645000000        -0.000290703595
   70          2.132821000000        -0.001397805403
   71          0.929697000000        -0.001443403193
   72          0.192147000000         0.002025021417
   73          0.087595000000         0.003701491106
   74    5820021.000000000000         0.000000000015
   75     871523.400000000023         0.000000000117
   76     198335.000000000000         0.000000000591
   77      56176.309999999998         0.000000002620
   78      18325.820000000000         0.000000008954
   79       6614.955000000000         0.000000031341
   80       2579.199000000000         0.000000083830
   81       1068.849000000000         0.000000248308
   82        465.104500000000         0.000000498650
   83        210.413000000000         0.000001150551
   84         97.616290000000         0.000000959716
   85         44.380200000000         0.000000440299
   86         21.423080000000        -0.000007107420
   87         10.308910000000        -0.000005607615
   88          4.553645000000         0.000000476857
   89          2.132821000000         0.000036384750
   90          0.929697000000        -0.000021991259
   91          0.192147000000        -0.000045553357
   92          0.087595000000         0.000037319528
   93    5820021.000000000000        -0.000000002812
   94     871523.400000000023        -0.000000021971
   95     198335.000000000000        -0.000000114764
   96      56176.309999999998        -0.000000489169
   97      18325.820000000000        -0.000001758890
   98       6614.955000000000        -0.000005788857
   99       2579.199000000000        -0.000016710620
  100       1068.849000000000        -0.000045196871
  101        465.104500000000        -0.000102313776
  102        210.413000000000        -0.000202534788
  103         97.616290000000        -0.000232218862
  104         44.380200000000         0.000025838574
  105         21.423080000000         0.001164468308
  106         10.308910000000         0.002069426128
  107          4.553645000000        -0.003151210618
  108          2.132821000000        -0.005545933266
  109          0.929697000000         0.009749422469
  110          0.192147000000        -0.007245198874
  111          0.087595000000         0.002102353064
  112          0.037702000000        -0.003391924533
  113          0.016230000000         0.001087626532
 S 112
    1    5820021.000000000000         0.000000001438
    2     871523.400000000023         0.000000011180
    3     198335.000000000000         0.000000058778
    4      56176.309999999998         0.000000247867
    5      18325.820000000000         0.000000897792
    6       6614.955000000000         0.000002880406
    7       2579.199000000000         0.000008230798
    8       1068.849000000000         0.000020483029
    9        465.104500000000         0.000041650897
   10        210.413000000000         0.000060248779
   11         97.616290000000         0.000047059264
   12         44.380200000000         0.000011532824
   13         21.423080000000        -0.000000220497
   14         10.308910000000         0.000000321894
   15          4.553645000000        -0.000000147311
   16    5820021.000000000000         0.000000007376
   17     871523.400000000023         0.000000057352
   18     198335.000000000000         0.000000301707
   19      56176.309999999998         0.000001273642
   20      18325.820000000000         0.000004631687
   21       6614.955000000000         0.000014999279
   22       2579.199000000000         0.000043899856
   23       1068.849000000000         0.000115182064
   24        465.104500000000         0.000262811430
   25        210.413000000000         0.000480545941
   26         97.616290000000         0.000547200843
   27         44.380200000000        -0.000126646995
   28         21.423080000000        -0.001465269023
   29         10.308910000000        -0.001398689279
   30          4.553645000000        -0.000249933236
   31          2.132821000000         0.000005996541
   32          0.929697000000        -0.000005901131
   33          0.192147000000         0.000001155012
   34          0.087595000000        -0.000000896788
   35    5820021.000000000000         0.000000994148
   36     871523.400000000023         0.000007734348
   37     198335.000000000000         0.000040655848
   38      56176.309999999998         0.000171840034
   39      18325.820000000000         0.000624334506
   40       6614.955000000000         0.002027650582
   41       2579.199000000000         0.005939401201
   42       1068.849000000000         0.015726035620
   43        465.104500000000         0.036283250939
   44        210.413000000000         0.068746975544
   45         97.616290000000         0.082170022298
   46         44.380200000000        -0.020062106127
   47         21.423080000000        -0.324419903910
   48         10.308910000000        -0.459111487899
   49          4.553645000000         0.163135875366
   50          2.132821000000         0.727843626886
   51          0.929697000000         0.376009986449
   52          0.192147000000         0.014295547287
   53          0.087595000000        -0.006654130688
   54    5820021.000000000000         0.000000002391
   55     871523.400000000023         0.000000018600
   56     198335.000000000000         0.000000097747
   57      56176.309999999998         0.000000413294
   58      18325.820000000000         0.000001501040
   59       6614.955000000000         0.000004878197
   60       2579.199000000000         0.000014285307
   61       1068.849000000000         0.000037884747
   62        465.104500000000         0.000087478897
   63        210.413000000000         0.000166632693
   64         97.616290000000         0.000200089205
   65         44.380200000000        -0.000048333983
   66         21.423080000000        -0.000834656509
   67         10.308910000000        -0.001233750886
   68          4.553645000000         0.000535542059
   69          2.132821000000         0.002575075080
   70          0.929697000000         0.002659076567
   71          0.192147000000        -0.003730549457
   72          0.087595000000        -0.006818987454
   73    5820021.000000000000        -0.000000001091
   74     871523.400000000023        -0.000000008701
   75     198335.000000000000        -0.000000044087
   76      56176.309999999998        -0.000000195548
   77      18325.820000000000        -0.000000668375
   78       6614.955000000000        -0.000002339567
   79       2579.199000000000        -0.000006257829
   80       1068.849000000000        -0.000018535917
   81        465.104500000000        -0.000037223703
   82        210.413000000000        -0.000085887470
   83         97.616290000000        -0.000071641853
   84         44.380200000000        -0.000032867910
   85         21.423080000000         0.000530561717
   86         10.308910000000         0.000418602784
   87          4.553645000000        -0.000035596929
   88          2.132821000000        -0.002716084856
   89          0.929697000000         0.001641625277
   90          0.192147000000         0.003400512168
   91          0.087595000000        -0.002785865094
   92    5820021.000000000000         0.000000004899
   93     871523.400000000023         0.000000038281
   94     198335.000000000000         0.000000199958
   95      56176.309999999998         0.000000852299
   96      18325.820000000000         0.000003064587
   97       6614.955000000000         0.000010086166
   98       2579.199000000000         0.000029115606
   99       1068.849000000000         0.000078748385
  100        465.104500000000         0.000178265539
  101        210.413000000000         0.000352884770
  102         97.616290000000         0.000404604563
  103         44.380200000000        -0.000045019620
  104         21.423080000000        -0.002028901472
  105         10.308910000000        -0.003605647049
  106          4.553645000000         0.005490485074
  107          2.132821000000         0.009662909754
  108          0.929697000000        -0.016986823488
  109          0.192147000000         0.012623610763
  110          0.087595000000        -0.003663017017
  111          0.037702000000         0.010419734809
  112          0.016230000000        -0.003151395682
 S 113
    1    5820021.000000000000        -0.000000003676
    2     871523.400000000023        -0.000000028580
    3     198335.000000000000        -0.000000150264
    4      56176.309999999998        -0.000000633664
    5      18325.820000000000        -0.000002295180
    6       6614.955000000000        -0.000007363675
    7       2579.199000000000        -0.000021041795
    8       1068.849000000000        -0.000052364268
    9        465.104500000000        -0.000106479309
   10        210.413000000000        -0.000154024255
   11         97.616290000000        -0.000120305643
   12         44.380200000000        -0.000029483330
   13         21.423080000000         0.000000563695
   14         10.308910000000        -0.000000822912
   15          4.553645000000         0.000000376597
   16          2.132821000000        -0.000000160803
   17    5820021.000000000000         0.000000011489
   18     871523.400000000023         0.000000089327
   19     198335.000000000000         0.000000469914
   20      56176.309999999998         0.000001983720
   21      18325.820000000000         0.000007213935
   22       6614.955000000000         0.000023361645
   23       2579.199000000000         0.000068374810
   24       1068.849000000000         0.000179398121
   25        465.104500000000         0.000409333494
   26        210.413000000000         0.000748458885
   27         97.616290000000         0.000852275084
   28         44.380200000000        -0.000197254957
   29         21.423080000000        -0.002282182669
   30         10.308910000000        -0.002178483528
   31          4.553645000000        -0.000389275478
   32          2.132821000000         0.000009339720
   33          0.929697000000        -0.000009191116
   34          0.192147000000         0.000001798952
   35          0.087595000000        -0.000001396763
   36    5820021.000000000000        -0.000000016212
   37     871523.400000000023        -0.000000126126
   38     198335.000000000000        -0.000000662988
   39      56176.309999999998        -0.000002802249
   40      18325.820000000000        -0.000010181218
   41       6614.955000000000        -0.000033065530
   42       2579.199000000000        -0.000096855668
   43       1068.849000000000        -0.000256449368
   44        465.104500000000        -0.000591682290
   45        210.413000000000        -0.001121078373
   46         97.616290000000        -0.001339972183
   47         44.380200000000         0.000327159022
   48         21.423080000000         0.005290416561
   49         10.308910000000         0.007486874232
   50          4.553645000000        -0.002660307602
   51          2.132821000000        -0.011869173042
   52          0.929697000000        -0.006131712128
   53          0.192147000000        -0.000233121948
   54          0.087595000000         0.000108510985
   55    5820021.000000000000         0.000000215135
   56     871523.400000000023         0.000001673871
   57     198335.000000000000         0.000008796498
   58      56176.309999999998         0.000037193235
   59      18325.820000000000         0.000135081798
   60       6614.955000000000         0.000438999272
   61       2579.199000000000         0.001285565047
   62       1068.849000000000         0.003409328670
   63        465.104500000000         0.007872411233
   64        210.413000000000         0.014995628974
   65         97.616290000000         0.018006451385
   66         44.380200000000        -0.004349677552
   67         21.423080000000        -0.075112507216
   68         10.308910000000        -0.111027855550
   69          4.553645000000         0.048194564290
   70          2.132821000000         0.231736461026
   71          0.929697000000         0.239295932804
   72          0.192147000000        -0.335720047761
   73          0.087595000000        -0.613655125057
   74    5820021.000000000000         0.000000033432
   75     871523.400000000023         0.000000266722
   76     198335.000000000000         0.000001351517
   77      56176.309999999998         0.000005994697
   78      18325.820000000000         0.000020489610
   79       6614.955000000000         0.000071721431
   80       2579.199000000000         0.000191839108
   81       1068.849000000000         0.000568234432
   82        465.104500000000         0.001141124578
   83        210.413000000000         0.002632954107
   84         97.616290000000         0.002196242503
   85         44.380200000000         0.001007594003
   86         21.423080000000        -0.016264824890
   87         10.308910000000        -0.012832627675
   88          4.553645000000         0.001091254410
   89          2.132821000000         0.083263912800
   90          0.929697000000        -0.050325432069
   91          0.192147000000        -0.104245619564
   92          0.087595000000         0.085403085882
   93    5820021.000000000000        -0.000000006500
   94     871523.400000000023        -0.000000050788
   95     198335.000000000000        -0.000000265290
   96      56176.309999999998        -0.000001130766
   97      18325.820000000000        -0.000004065863
   98       6614.955000000000        -0.000013381564
   99       2579.199000000000        -0.000038628391
  100       1068.849000000000        -0.000104477420
  101        465.104500000000        -0.000236509278
  102        210.413000000000        -0.000468180911
  103         97.616290000000        -0.000536798835
  104         44.380200000000         0.000059728638
  105         21.423080000000         0.002691793530
  106         10.308910000000         0.004783700702
  107          4.553645000000        -0.007284361710
  108          2.132821000000        -0.012820020248
  109          0.929697000000         0.022536836895
  110          0.192147000000        -0.016748055161
  111          0.087595000000         0.004859814851
  112          0.037702000000        -0.184640676548
  113          0.016230000000         0.007567739760
 S 110
    1    5820021.000000000000        -0.000000000970
    2     871523.400000000023        -0.000000007544
    3     198335.000000000000        -0.000000039663
    4      56176.309999999998        -0.000000167259
    5      18325.820000000000        -0.000000605825
    6       6614.955000000000        -0.000001943682
    7       2579.199000000000        -0.000005554096
    8       1068.849000000000        -0.000013821833
    9        465.104500000000        -0.000028105792
   10        210.413000000000        -0.000040655539
   11         97.616290000000        -0.000031755328
   12         44.380200000000        -0.000007782285
   13         21.423080000000         0.000000148790
   14         10.308910000000        -0.000000217212
   15          4.553645000000         0.000000099405
   16    5820021.000000000000         0.000000000292
   17     871523.400000000023         0.000000002272
   18     198335.000000000000         0.000000011953
   19      56176.309999999998         0.000000050460
   20      18325.820000000000         0.000000183503
   21       6614.955000000000         0.000000594256
   22       2579.199000000000         0.000001739268
   23       1068.849000000000         0.000004563398
   24        465.104500000000         0.000010412326
   25        210.413000000000         0.000019038750
   26         97.616290000000         0.000021679551
   27         44.380200000000        -0.000005017627
   28         21.423080000000        -0.000058052494
   29         10.308910000000        -0.000055414671
   30          4.553645000000        -0.000009902105
   31          2.132821000000         0.000000237577
   32          0.929697000000        -0.000000233797
   33    5820021.000000000000         0.000000001642
   34     871523.400000000023         0.000000012772
   35     198335.000000000000         0.000000067134
   36      56176.309999999998         0.000000283755
   37      18325.820000000000         0.000001030948
   38       6614.955000000000         0.000003348209
   39       2579.199000000000         0.000009807584
   40       1068.849000000000         0.000025968008
   41        465.104500000000         0.000059913622
   42        210.413000000000         0.000113520156
   43         97.616290000000         0.000135685296
   44         44.380200000000        -0.000033128053
   45         21.423080000000        -0.000535706448
   46         10.308910000000        -0.000758119281
   47          4.553645000000         0.000269382178
   48          2.132821000000         0.001201869920
   49          0.929697000000         0.000620895857
   50          0.192147000000         0.000023605879
   51          0.087595000000        -0.000010987799
   52    5820021.000000000000        -0.000000046524
   53     871523.400000000023        -0.000000361985
   54     198335.000000000000        -0.000001902300
   55      56176.309999999998        -0.000008043279
   56      18325.820000000000        -0.000029212316
   57       6614.955000000000        -0.000094936445
   58       2579.199000000000        -0.000278011794
   59       1068.849000000000        -0.000737289475
   60        465.104500000000        -0.001702460075
   61        210.413000000000        -0.003242902190
   62         97.616290000000        -0.003894012098
   63         44.380200000000         0.000940646030
   64         21.423080000000         0.016243567682
   65         10.308910000000         0.024010495097
   66          4.553645000000        -0.010422387642
   67          2.132821000000        -0.050114515261
   68          0.929697000000        -0.051749300146
   69          0.192147000000         0.072601641461
   70          0.087595000000         0.132706907638
   71    5820021.000000000000        -0.000000109776
   72     871523.400000000023        -0.000000875807
   73     198335.000000000000        -0.000004437841
   74      56176.309999999998        -0.000019684182
   75      18325.820000000000        -0.000067279669
   76       6614.955000000000        -0.000235504437
   77       2579.199000000000        -0.000629922753
   78       1068.849000000000        -0.001865854155
   79        465.104500000000        -0.003746995808
   80        210.413000000000        -0.008645566132
   81         97.616290000000        -0.007211580238
   82         44.380200000000        -0.003308534912
   83         21.423080000000         0.053407166816
   84         10.308910000000         0.042137206614
   85          4.553645000000        -0.003583242161
   86          2.132821000000        -0.273405321656
   87          0.929697000000         0.165248551017
   88          0.192147000000         0.342300838261
   89          0.087595000000        -0.280429508787
   90    5820021.000000000000         0.000000055748
   91     871523.400000000023         0.000000435594
   92     198335.000000000000         0.000002275323
   93      56176.309999999998         0.000009698295
   94      18325.820000000000         0.000034871898
   95       6614.955000000000         0.000114770346
   96       2579.199000000000         0.000331306100
   97       1068.849000000000         0.000896076835
   98        465.104500000000         0.002028481223
   99        210.413000000000         0.004015471162
  100         97.616290000000         0.004603990018
  101         44.380200000000        -0.000512277667
  102         21.423080000000        -0.023086843228
  103         10.308910000000        -0.041028610455
  104          4.553645000000         0.062476157605
  105          2.132821000000         0.109954123286
  106          0.929697000000        -0.193292841554
  107          0.192147000000         0.143643901212
  108          0.087595000000        -0.041681422569
  109          0.037702000000         0.843123351029
  110          0.016230000000        -1.599886452097
 S 115
    1    5820021.000000000000         0.000000198664
    2     871523.400000000023         0.000001544704
    3     198335.000000000000         0.000008121482
    4      56176.309999999998         0.000034248443
    5      18325.820000000000         0.000124050429
    6       6614.955000000000         0.000397993682
    7       2579.199000000000         0.001137272034
    8       1068.849000000000         0.002830196609
    9        465.104500000000         0.005755019393
   10        210.413000000000         0.008324740148
   11         97.616290000000         0.006502308471
   12         44.380200000000         0.001593522126
   13         21.423080000000        -0.000030466742
   14         10.308910000000         0.000044476951
   15          4.553645000000        -0.000020354399
   16          2.132821000000         0.000008691117
   17          0.929697000000        -0.000003256527
   18          0.192147000000         0.000001105447
   19    5820021.000000000000        -0.000000432480
   20     871523.400000000023        -0.000003362599
   21     198335.000000000000        -0.000017689373
   22      56176.309999999998        -0.000074674904
   23      18325.820000000000        -0.000271560444
   24       6614.955000000000        -0.000879422732
   25       2579.199000000000        -0.002573892422
   26       1068.849000000000        -0.006753239490
   27        465.104500000000        -0.015408896705
   28        210.413000000000        -0.028174888683
   29         97.616290000000        -0.032082932165
   30         44.380200000000         0.007425439874
   31         21.423080000000         0.085910186875
   32         10.308910000000         0.082006549933
   33          4.553645000000         0.014653835361
   34          2.132821000000        -0.000351583199
   35          0.929697000000         0.000345989187
   36          0.192147000000        -0.000067719501
   37          0.087595000000         0.000052579549
   38    5820021.000000000000         0.000000748951
   39     871523.400000000023         0.000005826745
   40     198335.000000000000         0.000030628469
   41      56176.309999999998         0.000129457324
   42      18325.820000000000         0.000470348338
   43       6614.955000000000         0.001527549849
   44       2579.199000000000         0.004474504378
   45       1068.849000000000         0.011847358486
   46        465.104500000000         0.027334332142
   47        210.413000000000         0.051791187797
   48         97.616290000000         0.061903567720
   49         44.380200000000        -0.015113978438
   50         21.423080000000        -0.244404819784
   51         10.308910000000        -0.345876005474
   52          4.553645000000         0.122899963099
   53          2.132821000000         0.548327917974
   54          0.929697000000         0.283270699077
   55          0.192147000000         0.010769686497
   56          0.087595000000        -0.005012952634
   57    5820021.000000000000        -0.000000640650
   58     871523.400000000023        -0.000004984620
   59     198335.000000000000        -0.000026195090
   60      56176.309999999998        -0.000110757733
   61      18325.820000000000        -0.000402260081
   62       6614.955000000000        -0.001307295914
   63       2579.199000000000        -0.003828284099
   64       1068.849000000000        -0.010152639704
   65        465.104500000000        -0.023443253078
   66        210.413000000000        -0.044655482887
   67         97.616290000000        -0.053621410818
   68         44.380200000000         0.012952904598
   69         21.423080000000         0.223677532063
   70         10.308910000000         0.330629846349
   71          4.553645000000        -0.143518590961
   72          2.132821000000        -0.690087997491
   73          0.929697000000        -0.712599348182
   74          0.192147000000         0.999740716034
   75          0.087595000000         1.827403570963
   76    5820021.000000000000         0.000000138843
   77     871523.400000000023         0.000001107702
   78     198335.000000000000         0.000005612887
   79      56176.309999999998         0.000024896135
   80      18325.820000000000         0.000085093894
   81       6614.955000000000         0.000297861003
   82       2579.199000000000         0.000796712899
   83       1068.849000000000         0.002359892648
   84        465.104500000000         0.004739120597
   85        210.413000000000         0.010934728146
   86         97.616290000000         0.009121053289
   87         44.380200000000         0.004184564582
   88         21.423080000000        -0.067548248579
   89         10.308910000000        -0.053294242636
   90          4.553645000000         0.004532008467
   91          2.132821000000         0.345797235296
   92          0.929697000000        -0.209002852367
   93          0.192147000000        -0.432934819238
   94          0.087595000000         0.354681277769
   95    5820021.000000000000        -0.000000115484
   96     871523.400000000023        -0.000000902346
   97     198335.000000000000        -0.000004713400
   98      56176.309999999998        -0.000020090306
   99      18325.820000000000        -0.000072238172
  100       6614.955000000000        -0.000237750181
  101       2579.199000000000        -0.000686310429
  102       1068.849000000000        -0.001856249787
  103        465.104500000000        -0.004202059121
  104        210.413000000000        -0.008318167813
  105         97.616290000000        -0.009537302109
  106         44.380200000000         0.001061198407
  107         21.423080000000         0.047825081665
  108         10.308910000000         0.084991985532
  109          4.553645000000        -0.129421216667
  110          2.132821000000        -0.227773233161
  111          0.929697000000         0.400411864074
  112          0.192147000000        -0.297562609069
  113          0.087595000000         0.086344305221
  114          0.037702000000        -4.495922016874
  115          0.016230000000         2.400916300424
 S 116
    1    5820021.000000000000        -0.000000294024
    2     871523.400000000023        -0.000002286179
    3     198335.000000000000        -0.000012019881
    4      56176.309999999998        -0.000050688062
    5      18325.820000000000        -0.000183595960
    6       6614.955000000000        -0.000589034905
    7       2579.199000000000        -0.001683174769
    8       1068.849000000000        -0.004188721239
    9        465.104500000000        -0.008517490230
   10        210.413000000000        -0.012320704421
   11         97.616290000000        -0.009623486055
   12         44.380200000000        -0.002358429784
   13         21.423080000000         0.000045091104
   14         10.308910000000        -0.000065826364
   15          4.553645000000         0.000030124728
   16          2.132821000000        -0.000012862946
   17          0.929697000000         0.000004819694
   18          0.192147000000        -0.000001636073
   19          0.087595000000         0.000001252802
   20    5820021.000000000000         0.000000633620
   21     871523.400000000023         0.000004926494
   22     198335.000000000000         0.000025916437
   23      56176.309999999998         0.000109405094
   24      18325.820000000000         0.000397859177
   25       6614.955000000000         0.001288429198
   26       2579.199000000000         0.003770971604
   27       1068.849000000000         0.009894070992
   28        465.104500000000         0.022575345969
   29        210.413000000000         0.041278611432
   30         97.616290000000         0.047004227961
   31         44.380200000000        -0.010878901803
   32         21.423080000000        -0.125865740303
   33         10.308910000000        -0.120146579730
   34          4.553645000000        -0.021469116796
   35          2.132821000000         0.000515099329
   36          0.929697000000        -0.000506903625
   37          0.192147000000         0.000099214836
   38          0.087595000000        -0.000077033517
   39    5820021.000000000000        -0.000001108919
   40     871523.400000000023        -0.000008627252
   41     198335.000000000000        -0.000045349425
   42      56176.309999999998        -0.000191678373
   43      18325.820000000000        -0.000696411770
   44       6614.955000000000        -0.002261735844
   45       2579.199000000000        -0.006625084571
   46       1068.849000000000        -0.017541552156
   47        465.104500000000        -0.040472027033
   48        210.413000000000        -0.076683576600
   49         97.616290000000        -0.091656267775
   50         44.380200000000         0.022378207038
   51         21.423080000000         0.361873062128
   52         10.308910000000         0.512114324618
   53          4.553645000000        -0.181969349137
   54          2.132821000000        -0.811870661562
   55          0.929697000000        -0.419419041640
   56          0.192147000000        -0.015945918883
   57          0.087595000000         0.007422327111
   58    5820021.000000000000         0.000001041689
   59     871523.400000000023         0.000008104923
   60     198335.000000000000         0.000042592860
   61      56176.309999999998         0.000180090563
   62      18325.820000000000         0.000654069405
   63       6614.955000000000         0.002125645327
   64       2579.199000000000         0.006224737732
   65       1068.849000000000         0.016508053691
   66        465.104500000000         0.038118409773
   67        210.413000000000         0.072609206140
   68         97.616290000000         0.087187682672
   69         44.380200000000        -0.021061246218
   70         21.423080000000        -0.363696616499
   71         10.308910000000        -0.537599620855
   72          4.553645000000         0.233359271518
   73          2.132821000000         1.122073672129
   74          0.929697000000         1.158676821330
   75          0.192147000000        -1.625564769270
   76          0.087595000000        -2.971333283272
   77    5820021.000000000000        -0.000001205938
   78     871523.400000000023        -0.000009621102
   79     198335.000000000000        -0.000048751514
   80      56176.309999999998        -0.000216238857
   81      18325.820000000000        -0.000739094895
   82       6614.955000000000        -0.002587113318
   83       2579.199000000000        -0.006919961095
   84       1068.849000000000        -0.020497177007
   85        465.104500000000        -0.041162293472
   86        210.413000000000        -0.094975107683
   87         97.616290000000        -0.079222181541
   88         44.380200000000        -0.036345619797
   89         21.423080000000         0.586699742021
   90         10.308910000000         0.462894583699
   91          4.553645000000        -0.039363392160
   92          2.132821000000        -3.003470156621
   93          0.929697000000         1.815323448716
   94          0.192147000000         3.760315805396
   95          0.087595000000        -3.080633747636
   96    5820021.000000000000         0.000000643657
   97     871523.400000000023         0.000005029262
   98     198335.000000000000         0.000026270329
   99      56176.309999999998         0.000111974146
  100      18325.820000000000         0.000402622420
  101       6614.955000000000         0.001325110408
  102       2579.199000000000         0.003825179383
  103       1068.849000000000         0.010345884486
  104        465.104500000000         0.023420349229
  105        210.413000000000         0.046361650208
  106         97.616290000000         0.053156545316
  107         44.380200000000        -0.005914632942
  108         21.423080000000        -0.266555058404
  109         10.308910000000        -0.473706324766
  110          4.553645000000         0.721334470664
  111          2.132821000000         1.269503477131
  112          0.929697000000        -2.231711982444
  113          0.192147000000         1.658477432287
  114          0.087595000000        -0.481243534138
  115          0.037702000000         4.624427702866
  116          0.016230000000        -1.428616370444
 S 115
    1    5820021.000000000000         0.000000175177
    2     871523.400000000023         0.000001362083
    3     198335.000000000000         0.000007161326
    4      56176.309999999998         0.000030199446
    5      18325.820000000000         0.000109384656
    6       6614.955000000000         0.000350941166
    7       2579.199000000000         0.001002818866
    8       1068.849000000000         0.002495598652
    9        465.104500000000         0.005074636368
   10        210.413000000000         0.007340553736
   11         97.616290000000         0.005733577733
   12         44.380200000000         0.001405129120
   13         21.423080000000        -0.000026864834
   14         10.308910000000         0.000039218696
   15          4.553645000000        -0.000017948015
   16          2.132821000000         0.000007663616
   17          0.929697000000        -0.000002871526
   18          0.192147000000         0.000000974756
   19    5820021.000000000000        -0.000000392662
   20     871523.400000000023        -0.000003053010
   21     198335.000000000000        -0.000016060738
   22      56176.309999999998        -0.000067799697
   23      18325.820000000000        -0.000246558278
   24       6614.955000000000        -0.000798455592
   25       2579.199000000000        -0.002336917985
   26       1068.849000000000        -0.006131478800
   27        465.104500000000        -0.013990222560
   28        210.413000000000        -0.025580868692
   29         97.616290000000        -0.029129104437
   30         44.380200000000         0.006741790697
   31         21.423080000000         0.078000564065
   32         10.308910000000         0.074456329156
   33          4.553645000000         0.013304678588
   34          2.132821000000        -0.000319213458
   35          0.929697000000         0.000314134479
   36          0.192147000000        -0.000061484667
   37          0.087595000000         0.000047738628
   38    5820021.000000000000         0.000000676893
   39     871523.400000000023         0.000005266139
   40     198335.000000000000         0.000027681626
   41      56176.309999999998         0.000117001904
   42      18325.820000000000         0.000425094923
   43       6614.955000000000         0.001380580378
   44       2579.199000000000         0.004044000889
   45       1068.849000000000         0.010707493882
   46        465.104500000000         0.024704426266
   47        210.413000000000         0.046808225405
   48         97.616290000000         0.055947667440
   49         44.380200000000        -0.013659823989
   50         21.423080000000        -0.220890008148
   51         10.308910000000        -0.312598392023
   52          4.553645000000         0.111075443906
   53          2.132821000000         0.495571889195
   54          0.929697000000         0.256016501976
   55          0.192147000000         0.009733507466
   56          0.087595000000        -0.004530643664
   57    5820021.000000000000        -0.000000634434
   58     871523.400000000023        -0.000004936250
   59     198335.000000000000        -0.000025940900
   60      56176.309999999998        -0.000109682967
   61      18325.820000000000        -0.000398356647
   62       6614.955000000000        -0.001294610234
   63       2579.199000000000        -0.003791135364
   64       1068.849000000000        -0.010054120965
   65        465.104500000000        -0.023215765471
   66        210.413000000000        -0.044222156978
   67         97.616290000000        -0.053101081732
   68         44.380200000000         0.012827212773
   69         21.423080000000         0.221507019872
   70         10.308910000000         0.327421494998
   71          4.553645000000        -0.142125921575
   72          2.132821000000        -0.683391551955
   73          0.929697000000        -0.705684457992
   74          0.192147000000         0.990039476077
   75          0.087595000000         1.809670892624
   76    5820021.000000000000         0.000000420916
   77     871523.400000000023         0.000003358113
   78     198335.000000000000         0.000017016046
   79      56176.309999999998         0.000075475199
   80      18325.820000000000         0.000257970909
   81       6614.955000000000         0.000902996327
   82       2579.199000000000         0.002415317261
   83       1068.849000000000         0.007154257769
   84        465.104500000000         0.014367132496
   85        210.413000000000         0.033149755293
   86         97.616290000000         0.027651413048
   87         44.380200000000         0.012685938786
   88         21.423080000000        -0.204779476989
   89         10.308910000000        -0.161566988975
   90          4.553645000000         0.013739250730
   91          2.132821000000         1.048319956145
   92          0.929697000000        -0.633613686472
   93          0.192147000000        -1.312486522136
   94          0.087595000000         1.075252846478
   95    5820021.000000000000        -0.000001220299
   96     871523.400000000023        -0.000009534905
   97     198335.000000000000        -0.000049805534
   98      56176.309999999998        -0.000212290157
   99      18325.820000000000        -0.000763325994
  100       6614.955000000000        -0.002512257564
  101       2579.199000000000        -0.007252101998
  102       1068.849000000000        -0.019614612032
  103        465.104500000000        -0.044402299717
  104        210.413000000000        -0.087896378820
  105         97.616290000000        -0.100778721699
  106         44.380200000000         0.011213466633
  107         21.423080000000         0.505357861179
  108         10.308910000000         0.898092936387
  109          4.553645000000        -1.367567539224
  110          2.132821000000        -2.406833191624
  111          0.929697000000         4.231070312332
  112          0.192147000000        -3.144283259946
  113          0.087595000000         0.912382622091
  114          0.037702000000        -2.205961924198
  115          0.016230000000         0.673880881087
 P 77
    1      24411.980000000000         0.000040998633
    2       5778.518000000000         0.000360987960
    3       1876.862000000000         0.002087930363
    4        718.236100000000         0.009220692468
    5        304.832700000000         0.032771906978
    6        139.045300000000         0.094175859009
    7         66.804170000000         0.209125025179
    8         33.206990000000         0.334557841694
    9         16.928160000000         0.330347982103
   10          8.696229000000         0.152341919032
   11          4.350510000000         0.022983233454
   12          2.116523000000         0.001606946404
   13          0.995387000000         0.000467984392
   14          0.378112000000         0.000065997799
   15          0.134579000000        -0.000001999933
   16      24411.980000000000         0.000000006814
   17       5778.518000000000         0.000000061327
   18       1876.862000000000         0.000000355240
   19        718.236100000000         0.000001579955
   20        304.832700000000         0.000005687473
   21        139.045300000000         0.000016815296
   22         66.804170000000         0.000038866974
   23         33.206990000000         0.000065741194
   24         16.928160000000         0.000065161544
   25          8.696229000000        -0.000019803945
   26          4.350510000000        -0.000158489708
   27          2.116523000000        -0.000206177717
   28          0.995387000000        -0.000122014471
   29          0.378112000000        -0.000017656606
   30          0.134579000000         0.000001132043
   31      24411.980000000000        -0.000000072749
   32       5778.518000000000        -0.000000606243
   33       1876.862000000000        -0.000003491960
   34        718.236100000000        -0.000015641070
   35        304.832700000000        -0.000056041105
   36        139.045300000000        -0.000167274575
   37         66.804170000000        -0.000385134067
   38         33.206990000000        -0.000663229866
   39         16.928160000000        -0.000645551820
   40          8.696229000000         0.000263303469
   41          4.350510000000         0.001936412962
   42          2.116523000000         0.002573550129
   43          0.995387000000         0.001670393524
   44          0.378112000000        -0.004471284786
   45          0.134579000000        -0.013623202198
   46      24411.980000000000         0.000000082675
   47       5778.518000000000         0.000000694468
   48       1876.862000000000         0.000003935317
   49        718.236100000000         0.000017990023
   50        304.832700000000         0.000063180033
   51        139.045300000000         0.000192532925
   52         66.804170000000         0.000432669963
   53         33.206990000000         0.000773008782
   54         16.928160000000         0.000716112028
   55          8.696229000000        -0.000222047806
   56          4.350510000000        -0.002544678770
[...]
  BAS[ATNO][ 14].a[ 65] =        66.804170000000;     BAS[ATNO][ 14].d[ 65] =         0.220209635115;
  BAS[ATNO][ 14].a[ 66] =        33.206990000000;     BAS[ATNO][ 14].d[ 66] =         0.339966832333;
  BAS[ATNO][ 14].a[ 67] =        16.928160000000;     BAS[ATNO][ 14].d[ 67] =         0.460165338074;
  BAS[ATNO][ 14].a[ 68] =         8.696229000000;     BAS[ATNO][ 14].d[ 68] =        -0.265913271225;
  BAS[ATNO][ 14].a[ 69] =         4.350510000000;     BAS[ATNO][ 14].d[ 69] =        -1.646011112343;
  BAS[ATNO][ 14].a[ 70] =         2.116523000000;     BAS[ATNO][ 14].d[ 70] =        -1.537976794926;
  BAS[ATNO][ 14].a[ 71] =         0.995387000000;     BAS[ATNO][ 14].d[ 71] =         2.901789356094;
  BAS[ATNO][ 14].a[ 72] =         0.378112000000;     BAS[ATNO][ 14].d[ 72] =         2.089711992570;
  BAS[ATNO][ 14].a[ 73] =         0.134579000000;     BAS[ATNO][ 14].d[ 73] =        -2.693262783470;
  BAS[ATNO][ 14].a[ 74] =         0.046282000000;     BAS[ATNO][ 14].d[ 74] =        -0.479935807688;
  BAS[ATNO][ 14].a[ 75] =         0.015920000000;     BAS[ATNO][ 14].d[ 75] =         0.149958701202;

  // Basis function  16 L = d
  InitBFNGauss(BAS[ATNO][ 15]);
  BAS[ATNO][ 15].l  = 2;
  BAS[ATNO][ 15].ng = 23;
  BAS[ATNO][ 15].a[  0] =       205.617700000000;     BAS[ATNO][ 15].d[  0] =         0.002319393799;
  BAS[ATNO][ 15].a[  1] =        61.449810000000;     BAS[ATNO][ 15].d[  1] =         0.018426405219;
  BAS[ATNO][ 15].a[  2] =        23.056890000000;     BAS[ATNO][ 15].d[  2] =         0.076357771429;
  BAS[ATNO][ 15].a[  3] =         9.577739000000;     BAS[ATNO][ 15].d[  3] =         0.200075940063;
  BAS[ATNO][ 15].a[  4] =         4.133734000000;     BAS[ATNO][ 15].d[  4] =         0.326273938788;
  BAS[ATNO][ 15].a[  5] =         1.747518000000;     BAS[ATNO][ 15].d[  5] =         0.357491672064;
  BAS[ATNO][ 15].a[  6] =         0.699560000000;     BAS[ATNO][ 15].d[  6] =         0.269034825467;
  BAS[ATNO][ 15].a[  7] =       205.617700000000;     BAS[ATNO][ 15].d[  7] =        -0.000010742649;
  BAS[ATNO][ 15].a[  8] =        61.449810000000;     BAS[ATNO][ 15].d[  8] =        -0.000085757722;
  BAS[ATNO][ 15].a[  9] =        23.056890000000;     BAS[ATNO][ 15].d[  9] =        -0.000364860186;
  BAS[ATNO][ 15].a[ 10] =         9.577739000000;     BAS[ATNO][ 15].d[ 10] =        -0.000997867235;
  BAS[ATNO][ 15].a[ 11] =         4.133734000000;     BAS[ATNO][ 15].d[ 11] =        -0.001265591469;
  BAS[ATNO][ 15].a[ 12] =         1.747518000000;     BAS[ATNO][ 15].d[ 12] =         0.000191247976;
  BAS[ATNO][ 15].a[ 13] =         0.699560000000;     BAS[ATNO][ 15].d[ 13] =         0.001765463717;
  BAS[ATNO][ 15].a[ 14] =       205.617700000000;     BAS[ATNO][ 15].d[ 14] =         0.000046470264;
  BAS[ATNO][ 15].a[ 15] =        61.449810000000;     BAS[ATNO][ 15].d[ 15] =         0.000395432124;
  BAS[ATNO][ 15].a[ 16] =        23.056890000000;     BAS[ATNO][ 15].d[ 16] =         0.001642972327;
  BAS[ATNO][ 15].a[ 17] =         9.577739000000;     BAS[ATNO][ 15].d[ 17] =         0.005275120447;
  BAS[ATNO][ 15].a[ 18] =         4.133734000000;     BAS[ATNO][ 15].d[ 18] =         0.001495621831;
  BAS[ATNO][ 15].a[ 19] =         1.747518000000;     BAS[ATNO][ 15].d[ 19] =        -0.009476218668;
  BAS[ATNO][ 15].a[ 20] =         0.699560000000;     BAS[ATNO][ 15].d[ 20] =        -0.001401848815;
  BAS[ATNO][ 15].a[ 21] =         0.251608000000;     BAS[ATNO][ 15].d[ 21] =         0.130771484497;
  BAS[ATNO][ 15].a[ 22] =         0.090490000000;     BAS[ATNO][ 15].d[ 22] =         0.019010285320;

  // Basis function  17 L = d
  InitBFNGauss(BAS[ATNO][ 16]);
  BAS[ATNO][ 16].l  = 2;
  BAS[ATNO][ 16].ng = 23;
  BAS[ATNO][ 16].a[  0] =       205.617700000000;     BAS[ATNO][ 16].d[  0] =        -0.000419984823;
  BAS[ATNO][ 16].a[  1] =        61.449810000000;     BAS[ATNO][ 16].d[  1] =        -0.003336566020;
  BAS[ATNO][ 16].a[  2] =        23.056890000000;     BAS[ATNO][ 16].d[  2] =        -0.013826502917;
  BAS[ATNO][ 16].a[  3] =         9.577739000000;     BAS[ATNO][ 16].d[  3] =        -0.036228801826;
  BAS[ATNO][ 16].a[  4] =         4.133734000000;     BAS[ATNO][ 16].d[  4] =        -0.059080136601;
  BAS[ATNO][ 16].a[  5] =         1.747518000000;     BAS[ATNO][ 16].d[  5] =        -0.064732895608;
  BAS[ATNO][ 16].a[  6] =         0.699560000000;     BAS[ATNO][ 16].d[  6] =        -0.048715549571;
  BAS[ATNO][ 16].a[  7] =       205.617700000000;     BAS[ATNO][ 16].d[  7] =        -0.000130167431;
  BAS[ATNO][ 16].a[  8] =        61.449810000000;     BAS[ATNO][ 16].d[  8] =        -0.001039116401;
  BAS[ATNO][ 16].a[  9] =        23.056890000000;     BAS[ATNO][ 16].d[  9] =        -0.004420968682;
  BAS[ATNO][ 16].a[ 10] =         9.577739000000;     BAS[ATNO][ 16].d[ 10] =        -0.012091041890;
  BAS[ATNO][ 16].a[ 11] =         4.133734000000;     BAS[ATNO][ 16].d[ 11] =        -0.015335025465;
  BAS[ATNO][ 16].a[ 12] =         1.747518000000;     BAS[ATNO][ 16].d[ 12] =         0.002317329611;
  BAS[ATNO][ 16].a[ 13] =         0.699560000000;     BAS[ATNO][ 16].d[ 13] =         0.021391919686;
  BAS[ATNO][ 16].a[ 14] =       205.617700000000;     BAS[ATNO][ 16].d[ 14] =         0.000047522010;
  BAS[ATNO][ 16].a[ 15] =        61.449810000000;     BAS[ATNO][ 16].d[ 15] =         0.000404381813;
  BAS[ATNO][ 16].a[ 16] =        23.056890000000;     BAS[ATNO][ 16].d[ 16] =         0.001680157195;
  BAS[ATNO][ 16].a[ 17] =         9.577739000000;     BAS[ATNO][ 16].d[ 17] =         0.005394510563;
  BAS[ATNO][ 16].a[ 18] =         4.133734000000;     BAS[ATNO][ 16].d[ 18] =         0.001529471762;
  BAS[ATNO][ 16].a[ 19] =         1.747518000000;     BAS[ATNO][ 16].d[ 19] =        -0.009690690897;
  BAS[ATNO][ 16].a[ 20] =         0.699560000000;     BAS[ATNO][ 16].d[ 20] =        -0.001433576411;
  BAS[ATNO][ 16].a[ 21] =         0.251608000000;     BAS[ATNO][ 16].d[ 21] =        -0.002361177018;
  BAS[ATNO][ 16].a[ 22] =         0.090490000000;     BAS[ATNO][ 16].d[ 22] =         0.995019191773;

  // Basis function  18 L = d
  InitBFNGauss(BAS[ATNO][ 17]);
  BAS[ATNO][ 17].l  = 2;
  BAS[ATNO][ 17].ng = 23;
  BAS[ATNO][ 17].a[  0] =       205.617700000000;     BAS[ATNO][ 17].d[  0] =        -0.001212396885;
  BAS[ATNO][ 17].a[  1] =        61.449810000000;     BAS[ATNO][ 17].d[  1] =        -0.009631877217;
  BAS[ATNO][ 17].a[  2] =        23.056890000000;     BAS[ATNO][ 17].d[  2] =        -0.039913844844;
  BAS[ATNO][ 17].a[  3] =         9.577739000000;     BAS[ATNO][ 17].d[  3] =        -0.104583985091;
  BAS[ATNO][ 17].a[  4] =         4.133734000000;     BAS[ATNO][ 17].d[  4] =        -0.170550385714;
  BAS[ATNO][ 17].a[  5] =         1.747518000000;     BAS[ATNO][ 17].d[  5] =        -0.186868564454;
  BAS[ATNO][ 17].a[  6] =         0.699560000000;     BAS[ATNO][ 17].d[  6] =        -0.140630273519;
  BAS[ATNO][ 17].a[  7] =       205.617700000000;     BAS[ATNO][ 17].d[  7] =         0.000470737514;
  BAS[ATNO][ 17].a[  8] =        61.449810000000;     BAS[ATNO][ 17].d[  8] =         0.003757860678;
  BAS[ATNO][ 17].a[  9] =        23.056890000000;     BAS[ATNO][ 17].d[  9] =         0.015987991678;
  BAS[ATNO][ 17].a[ 10] =         9.577739000000;     BAS[ATNO][ 17].d[ 10] =         0.043726045356;
  BAS[ATNO][ 17].a[ 11] =         4.133734000000;     BAS[ATNO][ 17].d[ 11] =         0.055457587949;
  BAS[ATNO][ 17].a[ 12] =         1.747518000000;     BAS[ATNO][ 17].d[ 12] =        -0.008380391087;
  BAS[ATNO][ 17].a[ 13] =         0.699560000000;     BAS[ATNO][ 17].d[ 13] =        -0.077361740940;
  BAS[ATNO][ 17].a[ 14] =       205.617700000000;     BAS[ATNO][ 17].d[ 14] =        -0.000326464370;
  BAS[ATNO][ 17].a[ 15] =        61.449810000000;     BAS[ATNO][ 17].d[ 15] =        -0.002778002296;
  BAS[ATNO][ 17].a[ 16] =        23.056890000000;     BAS[ATNO][ 17].d[ 16] =        -0.011542261292;
  BAS[ATNO][ 17].a[ 17] =         9.577739000000;     BAS[ATNO][ 17].d[ 17] =        -0.037058943435;
  BAS[ATNO][ 17].a[ 18] =         4.133734000000;     BAS[ATNO][ 17].d[ 18] =        -0.010507089910;
  BAS[ATNO][ 17].a[ 19] =         1.747518000000;     BAS[ATNO][ 17].d[ 19] =         0.066572631866;
  BAS[ATNO][ 17].a[ 20] =         0.699560000000;     BAS[ATNO][ 17].d[ 20] =         0.009848312743;
  BAS[ATNO][ 17].a[ 21] =         0.251608000000;     BAS[ATNO][ 17].d[ 21] =         1.437044638378;
  BAS[ATNO][ 17].a[ 22] =         0.090490000000;     BAS[ATNO][ 17].d[ 22] =        -0.903999859940;

  // Basis function  19 L = d
  InitBFNGauss(BAS[ATNO][ 18]);
  BAS[ATNO][ 18].l  = 2;
  BAS[ATNO][ 18].ng = 23;
  BAS[ATNO][ 18].a[  0] =       205.617700000000;     BAS[ATNO][ 18].d[  0] =         0.002542394927;
  BAS[ATNO][ 18].a[  1] =        61.449810000000;     BAS[ATNO][ 18].d[  1] =         0.020198035869;
  BAS[ATNO][ 18].a[  2] =        23.056890000000;     BAS[ATNO][ 18].d[  2] =         0.083699288485;
  BAS[ATNO][ 18].a[  3] =         9.577739000000;     BAS[ATNO][ 18].d[  3] =         0.219312501043;
  BAS[ATNO][ 18].a[  4] =         4.133734000000;     BAS[ATNO][ 18].d[  4] =         0.357643970175;
  BAS[ATNO][ 18].a[  5] =         1.747518000000;     BAS[ATNO][ 18].d[  5] =         0.391863172941;
  BAS[ATNO][ 18].a[  6] =         0.699560000000;     BAS[ATNO][ 18].d[  6] =         0.294901528001;
  BAS[ATNO][ 18].a[  7] =       205.617700000000;     BAS[ATNO][ 18].d[  7] =        -0.007971131054;
  BAS[ATNO][ 18].a[  8] =        61.449810000000;     BAS[ATNO][ 18].d[  8] =        -0.063632914443;
  BAS[ATNO][ 18].a[  9] =        23.056890000000;     BAS[ATNO][ 18].d[  9] =        -0.270729171100;
  BAS[ATNO][ 18].a[ 10] =         9.577739000000;     BAS[ATNO][ 18].d[ 10] =        -0.740425455143;
  BAS[ATNO][ 18].a[ 11] =         4.133734000000;     BAS[ATNO][ 18].d[ 11] =        -0.939078973726;
  BAS[ATNO][ 18].a[ 12] =         1.747518000000;     BAS[ATNO][ 18].d[ 12] =         0.141907525236;
  BAS[ATNO][ 18].a[ 13] =         0.699560000000;     BAS[ATNO][ 18].d[ 13] =         1.309988172492;
  BAS[ATNO][ 18].a[ 14] =       205.617700000000;     BAS[ATNO][ 18].d[ 14] =         0.003602053329;
  BAS[ATNO][ 18].a[ 15] =        61.449810000000;     BAS[ATNO][ 18].d[ 15] =         0.030651162353;
  BAS[ATNO][ 18].a[ 16] =        23.056890000000;     BAS[ATNO][ 18].d[ 16] =         0.127351847501;
  BAS[ATNO][ 18].a[ 17] =         9.577739000000;     BAS[ATNO][ 18].d[ 17] =         0.408890839805;
  BAS[ATNO][ 18].a[ 18] =         4.133734000000;     BAS[ATNO][ 18].d[ 18] =         0.115930256477;
  BAS[ATNO][ 18].a[ 19] =         1.747518000000;     BAS[ATNO][ 18].d[ 19] =        -0.734530907494;
  BAS[ATNO][ 18].a[ 20] =         0.699560000000;     BAS[ATNO][ 18].d[ 20] =        -0.108661621056;
  BAS[ATNO][ 18].a[ 21] =         0.251608000000;     BAS[ATNO][ 18].d[ 21] =        -1.133753250967;
  BAS[ATNO][ 18].a[ 22] =         0.090490000000;     BAS[ATNO][ 18].d[ 22] =         0.421594153994;

  // Basis function  20 L = d
  InitBFNGauss(BAS[ATNO][ 19]);
  BAS[ATNO][ 19].l  = 2;
  BAS[ATNO][ 19].ng = 23;
  BAS[ATNO][ 19].a[  0] =       205.617700000000;     BAS[ATNO][ 19].d[  0] =        -0.003149257860;
  BAS[ATNO][ 19].a[  1] =        61.449810000000;     BAS[ATNO][ 19].d[  1] =        -0.025019253516;
  BAS[ATNO][ 19].a[  2] =        23.056890000000;     BAS[ATNO][ 19].d[  2] =        -0.103678086886;
  BAS[ATNO][ 19].a[  3] =         9.577739000000;     BAS[ATNO][ 19].d[  3] =        -0.271661813976;
  BAS[ATNO][ 19].a[  4] =         4.133734000000;     BAS[ATNO][ 19].d[  4] =        -0.443012638282;
  BAS[ATNO][ 19].a[  5] =         1.747518000000;     BAS[ATNO][ 19].d[  5] =        -0.485399874084;
  BAS[ATNO][ 19].a[  6] =         0.699560000000;     BAS[ATNO][ 19].d[  6] =        -0.365293741396;
  BAS[ATNO][ 19].a[  7] =       205.617700000000;     BAS[ATNO][ 19].d[  7] =         0.006703769679;
  BAS[ATNO][ 19].a[  8] =        61.449810000000;     BAS[ATNO][ 19].d[  8] =         0.053515667921;
  BAS[ATNO][ 19].a[  9] =        23.056890000000;     BAS[ATNO][ 19].d[  9] =         0.227684878872;
  BAS[ATNO][ 19].a[ 10] =         9.577739000000;     BAS[ATNO][ 19].d[ 10] =         0.622702309408;
  BAS[ATNO][ 19].a[ 11] =         4.133734000000;     BAS[ATNO][ 19].d[ 11] =         0.789771126308;
  BAS[ATNO][ 19].a[ 12] =         1.747518000000;     BAS[ATNO][ 19].d[ 12] =        -0.119345091492;
  BAS[ATNO][ 19].a[ 13] =         0.699560000000;     BAS[ATNO][ 19].d[ 13] =        -1.101708017521;
  BAS[ATNO][ 19].a[ 14] =       205.617700000000;     BAS[ATNO][ 19].d[ 14] =        -0.009322840762;
  BAS[ATNO][ 19].a[ 15] =        61.449810000000;     BAS[ATNO][ 19].d[ 15] =        -0.079331392311;
  BAS[ATNO][ 19].a[ 16] =        23.056890000000;     BAS[ATNO][ 19].d[ 16] =        -0.329612275693;
  BAS[ATNO][ 19].a[ 17] =         9.577739000000;     BAS[ATNO][ 19].d[ 17] =        -1.058291990755;
  BAS[ATNO][ 19].a[ 18] =         4.133734000000;     BAS[ATNO][ 19].d[ 18] =        -0.300050893716;
  BAS[ATNO][ 19].a[ 19] =         1.747518000000;     BAS[ATNO][ 19].d[ 19] =         1.901114186695;
  BAS[ATNO][ 19].a[ 20] =         0.699560000000;     BAS[ATNO][ 19].d[ 20] =         0.281238198735;
  BAS[ATNO][ 19].a[ 21] =         0.251608000000;     BAS[ATNO][ 19].d[ 21] =         0.584911508064;
  BAS[ATNO][ 19].a[ 22] =         0.090490000000;     BAS[ATNO][ 19].d[ 22] =        -0.199975524245;

  // Basis function  21 L = f
  InitBFNGauss(BAS[ATNO][ 20]);
  BAS[ATNO][ 20].l  = 3;
  BAS[ATNO][ 20].ng = 3;
  BAS[ATNO][ 20].a[  0] =         5.792200000000;     BAS[ATNO][ 20].d[  0] =         0.028423061178;
  BAS[ATNO][ 20].a[  1] =         1.485100000000;     BAS[ATNO][ 20].d[  1] =        -0.066623050211;
  BAS[ATNO][ 20].a[  2] =         0.548610000000;     BAS[ATNO][ 20].d[  2] =         1.035614217965;

  // Basis function  22 L = f
  InitBFNGauss(BAS[ATNO][ 21]);
  BAS[ATNO][ 21].l  = 3;
  BAS[ATNO][ 21].ng = 3;
  BAS[ATNO][ 21].a[  0] =         5.792200000000;     BAS[ATNO][ 21].d[  0] =         0.070896271437;
  BAS[ATNO][ 21].a[  1] =         1.485100000000;     BAS[ATNO][ 21].d[  1] =         1.193262686222;
  BAS[ATNO][ 21].a[  2] =         0.548610000000;     BAS[ATNO][ 21].d[  2] =        -0.662769022422;

  // Basis function  23 L = f
  InitBFNGauss(BAS[ATNO][ 22]);
  BAS[ATNO][ 22].l  = 3;
  BAS[ATNO][ 22].ng = 3;
  BAS[ATNO][ 22].a[  0] =         5.792200000000;     BAS[ATNO][ 22].d[  0] =         1.099223834384;
  BAS[ATNO][ 22].a[  1] =         1.485100000000;     BAS[ATNO][ 22].d[  1] =        -0.637970161749;
  BAS[ATNO][ 22].a[  2] =         0.548610000000;     BAS[ATNO][ 22].d[  2] =         0.262369164257;

  // Basis function  24 L = g
  InitBFNGauss(BAS[ATNO][ 23]);
  BAS[ATNO][ 23].l  = 4;
  BAS[ATNO][ 23].ng = 2;
  BAS[ATNO][ 23].a[  0] =         4.114400000000;     BAS[ATNO][ 23].d[  0] =        -0.168438655120;
  BAS[ATNO][ 23].a[  1] =         1.829330000000;     BAS[ATNO][ 23].d[  1] =         1.100165094738;

  // Basis function  25 L = g
  InitBFNGauss(BAS[ATNO][ 24]);
  BAS[ATNO][ 24].l  = 4;
  BAS[ATNO][ 24].ng = 2;
  BAS[ATNO][ 24].a[  0] =         4.114400000000;     BAS[ATNO][ 24].d[  0] =         1.296463828237;
  BAS[ATNO][ 24].a[  1] =         1.829330000000;     BAS[ATNO][ 24].d[  1] =        -0.706276718280;

-------
TIMINGS
-------

Total SCF time: 0 days 0 hours 0 min 1 sec 

Total time                  ....       1.367 sec
Sum of individual times     ....       1.251 sec  ( 91.5%)

Fock matrix formation       ....       1.015 sec  ( 74.3%)
  Split-RI-J                ....       0.769 sec  ( 75.8% of F)
  XC integration            ....       0.214 sec  ( 21.0% of F)
    Basis function eval.    ....       0.035 sec  ( 16.4% of XC)
    Density eval.           ....       0.013 sec  (  6.3% of XC)
    XC-Functional eval.     ....       0.007 sec  (  3.2% of XC)
    XC-Potential eval.      ....       0.033 sec  ( 15.5% of XC)
Diagonalization             ....       0.010 sec  (  0.8%)
Density matrix formation    ....       0.002 sec  (  0.2%)
Population analysis         ....       0.003 sec  (  0.2%)
Initial guess               ....       0.094 sec  (  6.8%)
Orbital Transformation      ....       0.000 sec  (  0.0%)
Orbital Orthonormalization  ....       0.000 sec  (  0.0%)
DIIS solution               ....       0.006 sec  (  0.4%)
Grid generation             ....       0.122 sec  (  8.9%)


-------------------------------------------------------------------------------
                          DFT DISPERSION CORRECTION                            
                                                                               
                              DFTD3 V3.1  Rev 1                                
                          USING Becke-Johnson damping                          
-------------------------------------------------------------------------------
The SCAN functional is recognized
Active option DFTDOPT                   ...         4   

molecular C6(AA) [au] = 340.521234 


            DFT-D V3
 parameters
 s6 scaling factor         :     1.0000 
 a1 scaling factor         :     0.5380 
 s8 scaling factor         :     0.0000 
 a2 scaling factor         :     5.4200 
 ad hoc parameters k1-k3   :    16.0000     1.3333    -4.0000 

 Edisp/kcal,au: -0.000000000000  -0.000000000000 
 E6   /kcal   :  -0.000000000 
 E8   /kcal   :  -0.000000000 
 % E8         :          -nan 

-------------------------   ----------------
Dispersion correction            0.000000000
-------------------------   ----------------


-------------------------   --------------------
FINAL SINGLE POINT ENERGY     -1779.649265945251
-------------------------   --------------------


                            ***************************************
                            *     ORCA property calculations      *
                            ***************************************

                                    ---------------------
                                    Active property flags
                                    ---------------------
   (+) Dipole Moment


------------------------------------------------------------------------------
                       ORCA ELECTRIC PROPERTIES CALCULATION
------------------------------------------------------------------------------

Dipole Moment Calculation                       ... on
Quadrupole Moment Calculation                   ... off
Polarizability Calculation                      ... off
GBWName                                         ... 70_Zn.gbw
Electron density file                           ... 70_Zn.scfp
The origin for moment calculation is the CENTER OF MASS  = ( 0.000000,  0.000000  0.000000)

-------------
DIPOLE MOMENT
-------------
                                X             Y             Z
Electronic contribution:     -0.00000       0.00000      -0.00000
Nuclear contribution   :      0.00000       0.00000       0.00000
                        -----------------------------------------
Total Dipole Moment    :     -0.00000       0.00000      -0.00000
                        -----------------------------------------
Magnitude (a.u.)       :      0.00000
Magnitude (Debye)      :      0.00000



--------------------
Rotational spectrum 
--------------------
 
Rotational constants in cm-1:     0.000000     0.000000     0.000000 
Rotational constants in MHz :     0.000000     0.000000     0.000000 

 Dipole components along the rotational axes: 
x,y,z [a.u.] :    -0.000000     0.000000    -0.000000 
x,y,z [Debye]:    -0.000000     0.000000    -0.000000 

 

Timings for individual modules:

Sum of individual times         ...        4.204 sec (=   0.070 min)
GTO integral calculation        ...        2.509 sec (=   0.042 min)  59.7 %
SCF iterations                  ...        1.695 sec (=   0.028 min)  40.3 %
                             ****ORCA TERMINATED NORMALLY****
TOTAL RUN TIME: 0 days 0 hours 0 minutes 4 seconds 778 msec
