
                                 *****************
                                 * O   R   C   A *
                                 *****************

           --- An Ab Initio, DFT and Semiempirical electronic structure package ---

                  #######################################################
                  #                        -***-                        #
                  #          Department of theory and spectroscopy      #
                  #               Directorship: Frank Neese             #
                  #        Max Planck Institute fuer Kohlenforschung    #
                  #                Kaiser Wilhelm Platz 1               #
                  #                 D-45470 Muelheim/Ruhr               #
                  #                      Germany                        #
                  #                                                     #
                  #                  All rights reserved                #
                  #                        -***-                        #
                  #######################################################


                         Program Version 4.2.0 -  RELEASE  -


 With contributions from (in alphabetic order):
   Daniel Aravena         : Magnetic Suceptibility
   Michael Atanasov       : Ab Initio Ligand Field Theory (pilot matlab implementation)
   Alexander A. Auer      : GIAO ZORA, VPT2
   Ute Becker             : Parallelization
   Giovanni Bistoni       : ED, misc. LED, open-shell LED, HFLED
   Martin Brehm           : Molecular dynamics
   Dmytro Bykov           : SCF Hessian
   Vijay G. Chilkuri      : MRCI spin determinant printing, contributions to CSF-ICE
   Dipayan Datta          : RHF DLPNO-CCSD density
   Achintya Kumar Dutta   : EOM-CC, STEOM-CC
   Dmitry Ganyushin       : Spin-Orbit,Spin-Spin,Magnetic field MRCI
   Miquel Garcia          : C-PCM Hessian, Gaussian charge scheme
   Yang Guo               : DLPNO-NEVPT2, CIM, IAO-localization
   Andreas Hansen         : Spin unrestricted coupled pair/coupled cluster methods
   Benjamin Helmich-Paris : CASSCF linear response (MC-RPA)
   Lee Huntington         : MR-EOM, pCC
   Robert Izsak           : Overlap fitted RIJCOSX, COSX-SCS-MP3, EOM
   Christian Kollmar      : KDIIS, OOCD, Brueckner-CCSD(T), CCSD density
   Simone Kossmann        : Meta GGA functionals, TD-DFT gradient, OOMP2, MP2 Hessian
   Martin Krupicka        : AUTO-CI
   Lucas Lang             : DCDCAS
   Dagmar Lenk            : GEPOL surface, SMD
   Dimitrios Liakos       : Extrapolation schemes; Compound Job, initial MDCI parallelization
   Dimitrios Manganas     : Further ROCIS development; embedding schemes
   Dimitrios Pantazis     : SARC Basis sets
   Taras Petrenko         : DFT Hessian,TD-DFT gradient, ASA, ECA, R-Raman, ABS, FL, XAS/XES, NRVS
   Peter Pinski           : DLPNO-MP2, DLPNO-MP2 Gradient
   Christoph Reimann      : Effective Core Potentials
   Marius Retegan         : Local ZFS, SOC
   Christoph Riplinger    : Optimizer, TS searches, QM/MM, DLPNO-CCSD(T), (RO)-DLPNO pert. Triples
   Tobias Risthaus        : Range-separated hybrids, TD-DFT gradient, RPA, STAB
   Michael Roemelt        : Original ROCIS implementation
   Masaaki Saitow         : Open-shell DLPNO-CCSD energy and density
   Barbara Sandhoefer     : DKH picture change effects
   Avijit Sen             : IP-ROCIS
   Kantharuban Sivalingam : CASSCF convergence, NEVPT2, FIC-MRCI
   Bernardo de Souza      : ESD, SOC TD-DFT
   Georgi Stoychev        : AutoAux, RI-MP2 NMR
   Willem Van den Heuvel  : Paramagnetic NMR
   Boris Wezisla          : Elementary symmetry handling
   Frank Wennmohs         : Technical directorship


 We gratefully acknowledge several colleagues who have allowed us to
 interface, adapt or use parts of their codes:
   Stefan Grimme, W. Hujo, H. Kruse,             : VdW corrections, initial TS optimization,
                  C. Bannwarth                     DFT functionals, gCP, sTDA/sTD-DF
   Ed Valeev, F. Pavosevic, A. Kumar             : LibInt (2-el integral package), F12 methods
   Garnet Chan, S. Sharma, J. Yang, R. Olivares  : DMRG
   Ulf Ekstrom                                   : XCFun DFT Library
   Mihaly Kallay                                 : mrcc  (arbitrary order and MRCC methods)
   Andreas Klamt, Michael Diedenhofen            : otool_cosmo (COSMO solvation model)
   Jiri Pittner, Ondrej Demel                    : Mk-CCSD
   Frank Weinhold                                : gennbo (NPA and NBO analysis)
   Christopher J. Cramer and Donald G. Truhlar   : smd solvation model
   Lars Goerigk                                  : TD-DFT with DH, B97 family of functionals
   V. Asgeirsson, H. Jonsson                     : NEB implementation
   FAccTs GmbH                                   : IRC, NEB, NEB-TS, Multilevel, MM, QM/MM, CI optimization
   S Lehtola, MJT Oliveira, MAL Marques          : LibXC Library


 Your calculation uses the libint2 library for the computation of 2-el integrals
 For citations please refer to: http://libint.valeyev.net

 Your ORCA version has been built with support for libXC version: 4.2.3
 For citations please refer to: https://tddft.org/programs/libxc/

 This ORCA versions uses:
   CBLAS   interface :  Fast vector & matrix operations
   LAPACKE interface :  Fast linear algebra routines
   SCALAPACK package :  Parallel linear algebra routines


Your calculation utilizes the atom-pairwise dispersion correction
with the Becke-Johnson damping scheme (D3BJ)
Cite in your paper:
S.Grimme, S.Ehrlich, L.Goerigk, J Comput Chem, (2011), 32, 1456–1465 
S.Grimme, J.Antony, S.Ehrlich and H.Krieg, J.Chem.Phys., 132, (2010), 154104 
   

----- Orbital basis set information -----
Your calculation utilizes the basis: aug-cc-pVTZ 
    H, B-Ne : Obtained from the ccRepo (grant-hill.group.shef.ac.uk/ccrepo) Feb. 2017
              R. A. Kendall, T. H. Dunning, Jr., R. J. Harrison, J. Chem. Phys. 96, 6796 (1992)
         He : Obtained from the ccRepo (grant-hill.group.shef.ac.uk/ccrepo) Feb. 2017
              D. E. Woon, T. H. Dunning, Jr., J. Chem. Phys. 100, 2975 (1994)
  Li-Be, Na : Obtained from the ccRepo (grant-hill.group.shef.ac.uk/ccrepo) Feb. 2017
              B. P. Prascher, D. E. Woon, K. A. Peterson, T. H. Dunning, Jr., A. K. Wilson, Theor. Chem. Acc. 128, 69 (2011)
         Mg : Obtained from the Peterson Research Group Website (tyr0.chem.wsu.edu/~kipeters) Feb. 2017
              B. P. Prascher, D. E. Woon, K. A. Peterson, T. H. Dunning, Jr., A. K. Wilson, Theor. Chem. Acc. 128, 69 (2011)
      Al-Ar : Obtained from the ccRepo (grant-hill.group.shef.ac.uk/ccrepo) Feb. 2017
              D. E. Woon, T. H. Dunning, Jr., J. Chem. Phys. 98, 1358 (1993)
      Sc-Zn : Obtained from the ccRepo (grant-hill.group.shef.ac.uk/ccrepo) Feb. 2017
              N. B. Balabanov, K. A. Peterson, J. Chem. Phys. 123, 064107 (2005)
              N. B. Balabanov, K. A. Peterson, J. Chem. Phys. 125, 074110 (2006)
      Ga-Kr : Obtained from the ccRepo (grant-hill.group.shef.ac.uk/ccrepo) Feb. 2017
              A. K. Wilson, D. E. Woon, K. A. Peterson, T. H. Dunning, Jr., J. Chem. Phys. 110, 7667 (1999)
     Ag, Au : Obtained from the Peterson Research Group Website (tyr0.chem.wsu.edu/~kipeters) Feb. 2017
              K. A. Peterson, C. Puzzarini, Theor. Chem. Acc. 114, 283 (2005)

----- AuxJ basis set information -----
Your calculation utilizes the auxiliary basis: def2/J
   F. Weigend, Phys. Chem. Chem. Phys. 8, 1057 (2006).

================================================================================
                                        WARNINGS
                       Please study these warnings very carefully!
================================================================================


WARNING: your system is open-shell and RHF/RKS was chosen
  ===> : WILL SWITCH to UHF/UKS


WARNING: The SCAN functional is very grid-sensitive!
         Use at least GRID5 and a higher intacc

INFO   : the flag for use of LIBINT has been found!

================================================================================
                                       INPUT FILE
================================================================================
NAME = 73_Cl.in
|  1> #
|  2> # 73_Cl scanfunc/aug-cc-pvtz
|  3> #
|  4> ! scanfunc d3bj aug-cc-pvtz def2/j grid4 nofinalgrid
|  5> 
|  6> *xyz 0 2
|  7> Cl 0.0 0.0 0.0
|  8> *
|  9> 
| 10> %pal
| 11> nprocs 24
| 12> end
| 13> 
| 14> 
| 15>                          ****END OF INPUT****
================================================================================

                       ****************************
                       * Single Point Calculation *
                       ****************************

---------------------------------
CARTESIAN COORDINATES (ANGSTROEM)
---------------------------------
  Cl     0.000000    0.000000    0.000000

----------------------------
CARTESIAN COORDINATES (A.U.)
----------------------------
  NO LB      ZA    FRAG     MASS         X           Y           Z
   0 Cl   17.0000    0    35.453    0.000000    0.000000    0.000000

--------------------------------
INTERNAL COORDINATES (ANGSTROEM)
--------------------------------
 Cl     0   0   0     0.000000000000     0.00000000     0.00000000

---------------------------
INTERNAL COORDINATES (A.U.)
---------------------------
 Cl     0   0   0     0.000000000000     0.00000000     0.00000000

---------------------
BASIS SET INFORMATION
---------------------
There are 1 groups of distinct atoms

 Group   1 Type Cl  : 42s17p3d2f contracted to 6s5p3d2f pattern {131313111/77111/111/11}

Atom   0Cl   basis set group =>   1
---------------------------------
AUXILIARY/J BASIS SET INFORMATION
---------------------------------
There are 1 groups of distinct atoms

 Group   1 Type Cl  : 14s5p5d2f1g contracted to 8s4p3d1f1g pattern {71111111/2111/311/2/1}

Atom   0Cl   basis set group =>   1


           ************************************************************
           *        Program running with 24 parallel MPI-processes    *
           *              working on a common directory               *
           ************************************************************
------------------------------------------------------------------------------
                           ORCA GTO INTEGRAL CALCULATION
                           -- RI-GTO INTEGRALS CHOSEN --
------------------------------------------------------------------------------

                         BASIS SET STATISTICS AND STARTUP INFO

Gaussian basis set:
 # of primitive gaussian shells          ...   64
 # of primitive gaussian functions       ...  122
 # of contracted shells                  ...   16
 # of contracted basis functions         ...   50
 Highest angular momentum                ...    3
 Maximum contraction depth               ...   13
Auxiliary gaussian basis set:
 # of primitive gaussian shells          ...   27
 # of primitive gaussian functions       ...   77
 # of contracted shells                  ...   17
 # of contracted aux-basis functions     ...   51
 Highest angular momentum                ...    4
 Maximum contraction depth               ...    7
Ratio of auxiliary to basis functions    ...  1.02
Integral package used                  ... LIBINT
 One Electron integrals                  ... done
 Ordering auxiliary basis shells         ... done
 Integral threshhold             Thresh  ...  1.000e-10
 Primitive cut-off               TCut    ...  1.000e-11
 Pre-screening matrix                    ... done
 Shell pair data                         ... 
 Ordering of the shell pairs             ... done (   0.000 sec) 136 of 136 pairs
 Determination of significant pairs      ... done (   0.000 sec)
 Creation of shell pair data             ... done (   0.000 sec)
 Storage of shell pair data              ... done (   0.035 sec)
 Shell pair data done in (   0.035 sec)
 Computing two index integrals           ... done
 Cholesky decomposition of the V-matrix  ... done


Timings:
 Total evaluation time                   ...   0.202 sec (  0.003 min)
 One electron matrix time                ...   0.015 sec (  0.000 min) =  7.5%
 Schwartz matrix evaluation time         ...   0.134 sec (  0.002 min) = 66.4%
 Two index repulsion integral time       ...   0.000 sec (  0.000 min) =  0.2%
 Cholesky decomposition of V             ...   0.001 sec (  0.000 min) =  0.3%
 Three index repulsion integral time     ...   0.000 sec (  0.000 min) =  0.0%



           ************************************************************
           *        Program running with 24 parallel MPI-processes    *
           *              working on a common directory               *
           ************************************************************
-------------------------------------------------------------------------------
                                 ORCA SCF
-------------------------------------------------------------------------------

------------
SCF SETTINGS
------------
Hamiltonian:
 Density Functional     Method          .... DFT(GTOs)
 Exchange Functional    Exchange        .... SCAN
 Correlation Functional Correlation     .... SCAN
 Gradients option       PostSCFGGA      .... off
   Density functional embedding theory  .... OFF
   NL short-range parameter             ....  6.400000
 RI-approximation to the Coulomb term is turned on
   Number of auxiliary basis functions  .... 51


General Settings:
 Integral files         IntName         .... 73_Cl
 Hartree-Fock type      HFTyp           .... UHF
 Total Charge           Charge          ....    0
 Multiplicity           Mult            ....    2
 Number of Electrons    NEL             ....   17
 Basis Dimension        Dim             ....   50
 Nuclear Repulsion      ENuc            ....      0.0000000000 Eh

Convergence Acceleration:
 DIIS                   CNVDIIS         .... on
   Start iteration      DIISMaxIt       ....    12
   Startup error        DIISStart       ....  0.200000
   # of expansion vecs  DIISMaxEq       ....     5
   Bias factor          DIISBfac        ....   1.050
   Max. coefficient     DIISMaxC        ....  10.000
 Newton-Raphson         CNVNR           .... off
 SOSCF                  CNVSOSCF        .... off
 Level Shifting         CNVShift        .... on
   Level shift para.    LevelShift      ....    0.2500
   Turn off err/grad.   ShiftErr        ....    0.0010
 Zerner damping         CNVZerner       .... off
 Static damping         CNVDamp         .... on
   Fraction old density DampFac         ....    0.7000
   Max. Damping (<1)    DampMax         ....    0.9800
   Min. Damping (>=0)   DampMin         ....    0.0000
   Turn off err/grad.   DampErr         ....    0.1000
 Fernandez-Rico         CNVRico         .... off

SCF Procedure:
 Maximum # iterations   MaxIter         ....   125
 SCF integral mode      SCFMode         .... Direct
   Integral package                     .... LIBINT
 Reset frequency        DirectResetFreq ....    20
 Integral Threshold     Thresh          ....  1.000e-10 Eh
 Primitive CutOff       TCut            ....  1.000e-11 Eh

Convergence Tolerance:
 Convergence Check Mode ConvCheckMode   .... Total+1el-Energy
 Convergence forced     ConvForced      .... 0
 Energy Change          TolE            ....  1.000e-06 Eh
 1-El. energy change                    ....  1.000e-03 Eh
 DIIS Error             TolErr          ....  1.000e-06


Diagonalization of the overlap matrix:
Smallest eigenvalue                        ... 1.225e-02
Time for diagonalization                   ...    0.002 sec
Threshold for overlap eigenvalues          ... 1.000e-08
Number of eigenvalues below threshold      ... 0
Time for construction of square roots      ...    0.001 sec
Total time needed                          ...    0.003 sec

-------------------
DFT GRID GENERATION
-------------------

General Integration Accuracy     IntAcc      ...  4.670
Radial Grid Type                 RadialGrid  ... Gauss-Chebyshev
Angular Grid (max. acc.)         AngularGrid ... Lebedev-302
Angular grid pruning method      GridPruning ... 3 (G Style)
Weight generation scheme         WeightScheme... Becke
Basis function cutoff            BFCut       ...    1.0000e-10
Integration weight cutoff        WCut        ...    1.0000e-14
Grids for H and He will be reduced by one unit

# of grid points (after initial pruning)     ...   6738 (   0.0 sec)
# of grid points (after weights+screening)   ...   6738 (   0.0 sec)
Grid point division into batches done        ...    0.0 sec
Reduced shell lists constructed in    0.0 sec

Total number of grid points                  ...     6738
Total number of batches                      ...      106
Average number of points per batch           ...       63
Average number of grid points per atom       ...     6738
Average number of shells per batch           ...     3.33 (20.83%)
Average number of basis functions per batch  ...    10.00 (20.00%)
Average number of large shells per batch     ...     1.67 (50.00%)
Average number of large basis fcns per batch ...     3.33 (33.33%)
Maximum spatial batch extension              ...  17.78, 17.78, 17.78 au
Average spatial batch extension              ...   0.72,  0.72,  0.74 au

Time for grid setup =    0.061 sec

------------------------------
INITIAL GUESS: MODEL POTENTIAL
------------------------------
Loading Hartree-Fock densities                     ... done
Calculating cut-offs                               ... done
Setting up the integral package                    ... done
Initializing the effective Hamiltonian             ... done
Starting the Coulomb interaction                   ... done (   0.0 sec)
Reading the grid                                   ... done
Mapping shells                                     ... done
Starting the XC term evaluation                    ... done (   0.0 sec)
  promolecular density results
     # of electrons  =     17.000000665
     EX              =    -30.657486514
     EC              =     -0.289241103
     EX+EC           =    -30.946727617
Transforming the Hamiltonian                       ... done (   0.0 sec)
Diagonalizing the Hamiltonian                      ... done (   0.0 sec)
Back transforming the eigenvectors                 ... done (   0.0 sec)
Now organizing SCF variables                       ... done
                      ------------------
                      INITIAL GUESS DONE (   0.2 sec)
                      ------------------
--------------
SCF ITERATIONS
--------------
ITER       Energy         Delta-E        Max-DP      RMS-DP      [F,P]     Damp
               ***  Starting incremental Fock matrix formation  ***
  0   -460.1254278248   0.000000000000 0.01538800  0.00083246  0.1127293 0.7000
  1   -460.1375136002  -0.012085775391 0.01018333  0.00056262  0.0653857 0.7000
                               ***Turning on DIIS***
  2   -460.1439460050  -0.006432404795 0.02017689  0.00106447  0.0341505 0.0000
  3   -460.1552428633  -0.011296858314 0.00925852  0.00044371  0.0236738 0.0000
  4   -460.1566179583  -0.001375095058 0.00296787  0.00010111  0.0031624 0.0000
  5   -460.1566735825  -0.000055624176 0.00116348  0.00004429  0.0009477 0.0000
  6   -460.1566796029  -0.000006020425 0.00032213  0.00001111  0.0000606 0.0000
                 **** Energy Check signals convergence ****

               *****************************************************
               *                     SUCCESS                       *
               *           SCF CONVERGED AFTER   7 CYCLES          *
               *****************************************************


----------------
TOTAL SCF ENERGY
----------------

Total Energy       :         -460.15667991 Eh          -12521.49984 eV

Components:
Nuclear Repulsion  :            0.00000000 Eh               0.00000 eV
Electronic Energy  :         -460.15667991 Eh          -12521.49984 eV
One Electron Energy:         -635.08655821 Eh          -17281.58383 eV
Two Electron Energy:          174.92987830 Eh            4760.08399 eV

Virial components:
Potential Energy   :         -919.30762782 Eh          -25015.63232 eV
Kinetic Energy     :          459.15094791 Eh           12494.13248 eV
Virial Ratio       :            2.00219042


DFT components:
N(Alpha)           :        8.999999552049 electrons
N(Beta)            :        7.999999552944 electrons
N(Total)           :       16.999999104992 electrons
E(X)               :      -27.566133456148 Eh       
E(C)               :       -0.637808459381 Eh       
E(XC)              :      -28.203941915529 Eh       
DFET-embed. en.    :        0.000000000000 Eh       

---------------
SCF CONVERGENCE
---------------

  Last Energy change         ...   -3.0598e-07  Tolerance :   1.0000e-06
  Last MAX-Density change    ...    5.8267e-04  Tolerance :   1.0000e-05
  Last RMS-Density change    ...    2.0077e-05  Tolerance :   1.0000e-06
  Last DIIS Error            ...    5.2870e-05  Tolerance :   1.0000e-06

             **** THE GBW FILE WAS UPDATED (73_Cl.gbw) ****
             **** DENSITY FILE WAS UPDATED (73_Cl.scfp) ****
             **** ENERGY FILE WAS UPDATED (73_Cl.en.tmp) ****
----------------------
UHF SPIN CONTAMINATION
----------------------

Warning: in a DFT calculation there is little theoretical justification to 
         calculate <S**2> as in Hartree-Fock theory. We will do it anyways
         but you should keep in mind that the values have only limited relevance

Expectation value of <S**2>     :     0.756956
Ideal value S*(S+1) for S=0.5   :     0.750000
Deviation                       :     0.006956

             **** THE GBW FILE WAS UPDATED (73_Cl.gbw) ****
             **** DENSITY FILE WAS UPDATED (73_Cl.scfp) ****
----------------
ORBITAL ENERGIES
----------------
                 SPIN UP ORBITALS
  NO   OCC          E(Eh)            E(eV) 
   0   1.0000    -101.334278     -2757.4459 
   1   1.0000      -9.374258      -255.0865 
   2   1.0000      -7.153416      -194.6544 
   3   1.0000      -7.130690      -194.0359 
   4   1.0000      -7.130622      -194.0341 
   5   1.0000      -0.821050       -22.3419 
   6   1.0000      -0.392294       -10.6749 
   7   1.0000      -0.330027        -8.9805 
   8   1.0000      -0.329978        -8.9791 
   9   0.0000       0.058063         1.5800 
  10   0.0000       0.077743         2.1155 
  11   0.0000       0.084522         2.3000 
  12   0.0000       0.084541         2.3005 
  13   0.0000       0.200834         5.4650 
  14   0.0000       0.207733         5.6527 
  15   0.0000       0.207759         5.6534 
  16   0.0000       0.229560         6.2467 
  17   0.0000       0.229561         6.2467 
  18   0.0000       0.469675        12.7805 
  19   0.0000       0.493864        13.4387 
  20   0.0000       0.493890        13.4394 
  21   0.0000       0.666807        18.1447 
  22   0.0000       0.679591        18.4926 
  23   0.0000       0.679696        18.4955 
  24   0.0000       0.709291        19.3008 
  25   0.0000       0.709313        19.3014 
  26   0.0000       0.712715        19.3940 
  27   0.0000       0.997021        27.1303 
  28   0.0000       1.000192        27.2166 
  29   0.0000       1.000294        27.2194 
  30   0.0000       1.011674        27.5291 
  31   0.0000       1.011698        27.5297 
  32   0.0000       1.034907        28.1612 
  33   0.0000       1.034923        28.1617 
  34   0.0000       2.143285        58.3218 
  35   0.0000       2.162027        58.8318 
  36   0.0000       2.162188        58.8361 
  37   0.0000       2.207239        60.0620 
  38   0.0000       2.207259        60.0626 
  39   0.0000       2.275855        61.9292 
  40   0.0000       2.326967        63.3200 
  41   0.0000       2.327092        63.3234 
  42   0.0000       2.734787        74.4173 
  43   0.0000       2.741416        74.5977 
  44   0.0000       2.741506        74.6002 
  45   0.0000       2.759712        75.0956 
  46   0.0000       2.759755        75.0967 
  47   0.0000       2.798811        76.1595 
  48   0.0000       2.798827        76.1600 
  49   0.0000       4.669595       127.0661 

                 SPIN DOWN ORBITALS
  NO   OCC          E(Eh)            E(eV) 
   0   1.0000    -101.326230     -2757.2269 
   1   1.0000      -9.384232      -255.3579 
   2   1.0000      -7.134302      -194.1342 
   3   1.0000      -7.134214      -194.1318 
   4   1.0000      -7.128560      -193.9780 
   5   1.0000      -0.743169       -20.2226 
   6   1.0000      -0.310184        -8.4405 
   7   1.0000      -0.309324        -8.4171 
   8   0.0000      -0.257354        -7.0030 
   9   0.0000       0.070808         1.9268 
  10   0.0000       0.087188         2.3725 
  11   0.0000       0.096535         2.6269 
  12   0.0000       0.096632         2.6295 
  13   0.0000       0.231429         6.2975 
  14   0.0000       0.231462         6.2984 
  15   0.0000       0.236714         6.4413 
  16   0.0000       0.237078         6.4512 
  17   0.0000       0.244738         6.6597 
  18   0.0000       0.499469        13.5912 
  19   0.0000       0.499776        13.5996 
  20   0.0000       0.509034        13.8515 
  21   0.0000       0.719424        19.5765 
  22   0.0000       0.721196        19.6247 
  23   0.0000       0.723779        19.6950 
  24   0.0000       0.726718        19.7750 
  25   0.0000       0.726916        19.7804 
  26   0.0000       0.754681        20.5359 
  27   0.0000       1.007548        27.4168 
  28   0.0000       1.018146        27.7052 
  29   0.0000       1.018208        27.7069 
  30   0.0000       1.019033        27.7293 
  31   0.0000       1.019454        27.7408 
  32   0.0000       1.019723        27.7481 
  33   0.0000       1.020239        27.7621 
  34   0.0000       2.187627        59.5284 
  35   0.0000       2.200201        59.8705 
  36   0.0000       2.200537        59.8796 
  37   0.0000       2.211669        60.1826 
  38   0.0000       2.213750        60.2392 
  39   0.0000       2.337794        63.6146 
  40   0.0000       2.339947        63.6732 
  41   0.0000       2.347563        63.8804 
  42   0.0000       2.753347        74.9224 
  43   0.0000       2.755544        74.9822 
  44   0.0000       2.759683        75.0948 
  45   0.0000       2.761893        75.1549 
  46   0.0000       2.762116        75.1610 
  47   0.0000       2.765465        75.2521 
  48   0.0000       2.766683        75.2853 
  49   0.0000       4.676676       127.2588 

                    ********************************
                    * MULLIKEN POPULATION ANALYSIS *
                    ********************************

--------------------------------------------
MULLIKEN ATOMIC CHARGES AND SPIN POPULATIONS
--------------------------------------------
   0 Cl:   -0.000000    1.000000
Sum of atomic charges         :   -0.0000000
Sum of atomic spin populations:    1.0000000

-----------------------------------------------------
MULLIKEN REDUCED ORBITAL CHARGES AND SPIN POPULATIONS
-----------------------------------------------------
CHARGE
  0 Cls       :     5.997536  s :     5.997536
      pz      :     3.547395  p :    10.998904
      px      :     3.994654
      py      :     3.456855
      dz2     :     0.000079  d :     0.002464
      dxz     :     0.000019
      dyz     :     0.001813
      dx2y2   :     0.000533
      dxy     :     0.000019
      f0      :     0.000134  f :     0.001096
      f+1     :     0.000034
      f-1     :     0.000307
      f+2     :     0.000245
      f-2     :     0.000199
      f+3     :     0.000089
      f-3     :     0.000088

SPIN
  0 Cls       :    -0.000623  s :    -0.000623
      pz      :     0.451864  p :     0.998986
      px      :     0.004747
      py      :     0.542376
      dz2     :     0.000021  d :     0.000623
      dxz     :     0.000003
      dyz     :     0.000460
      dx2y2   :     0.000133
      dxy     :     0.000007
      f0      :     0.000119  f :     0.001014
      f+1     :     0.000031
      f-1     :     0.000287
      f+2     :     0.000242
      f-2     :     0.000175
      f+3     :     0.000078
      f-3     :     0.000082


                     *******************************
                     * LOEWDIN POPULATION ANALYSIS *
                     *******************************

-------------------------------------------
LOEWDIN ATOMIC CHARGES AND SPIN POPULATIONS
-------------------------------------------
   0 Cl:   -0.000000    1.000000

----------------------------------------------------
LOEWDIN REDUCED ORBITAL CHARGES AND SPIN POPULATIONS
----------------------------------------------------
CHARGE
  0 Cls       :     5.997536  s :     5.997536
      pz      :     3.547395  p :    10.998904
      px      :     3.994654
      py      :     3.456855
      dz2     :     0.000079  d :     0.002464
      dxz     :     0.000019
      dyz     :     0.001813
      dx2y2   :     0.000533
      dxy     :     0.000019
      f0      :     0.000134  f :     0.001096
      f+1     :     0.000034
      f-1     :     0.000307
      f+2     :     0.000245
      f-2     :     0.000199
      f+3     :     0.000089
      f-3     :     0.000088

SPIN
  0 Cls       :    -0.000623  s :    -0.000623
      pz      :     0.451864  p :     0.998986
      px      :     0.004747
      py      :     0.542376
      dz2     :     0.000021  d :     0.000623
      dxz     :     0.000003
      dyz     :     0.000460
      dx2y2   :     0.000133
      dxy     :     0.000007
      f0      :     0.000119  f :     0.001014
      f+1     :     0.000031
      f-1     :     0.000287
      f+2     :     0.000242
      f-2     :     0.000175
      f+3     :     0.000078
      f-3     :     0.000082


                      *****************************
                      * MAYER POPULATION ANALYSIS *
                      *****************************

  NA   - Mulliken gross atomic population
  ZA   - Total nuclear charge
  QA   - Mulliken gross atomic charge
  VA   - Mayer's total valence
  BVA  - Mayer's bonded valence
  FA   - Mayer's free valence

  ATOM       NA         ZA         QA         VA         BVA        FA
  0 Cl    17.0000    17.0000    -0.0000     1.0139     0.0000     1.0139

  Mayer bond orders larger than 0.100000


-------
TIMINGS
-------

Total SCF time: 0 days 0 hours 0 min 1 sec 

Total time                  ....       1.086 sec
Sum of individual times     ....       0.991 sec  ( 91.3%)

Fock matrix formation       ....       0.800 sec  ( 73.6%)
  Split-RI-J                ....       0.628 sec  ( 78.5% of F)
  XC integration            ....       0.127 sec  ( 15.9% of F)
    Basis function eval.    ....       0.007 sec  (  5.2% of XC)
    Density eval.           ....       0.008 sec  (  5.9% of XC)
    XC-Functional eval.     ....       0.004 sec  (  3.4% of XC)
    XC-Potential eval.      ....       0.013 sec  ( 10.6% of XC)
Diagonalization             ....       0.009 sec  (  0.8%)
Density matrix formation    ....       0.003 sec  (  0.2%)
Population analysis         ....       0.003 sec  (  0.3%)
Initial guess               ....       0.112 sec  ( 10.3%)
Orbital Transformation      ....       0.000 sec  (  0.0%)
Orbital Orthonormalization  ....       0.000 sec  (  0.0%)
DIIS solution               ....       0.005 sec  (  0.4%)
Grid generation             ....       0.061 sec  (  5.6%)


-------------------------------------------------------------------------------
                          DFT DISPERSION CORRECTION                            
                                                                               
                              DFTD3 V3.1  Rev 1                                
                          USING Becke-Johnson damping                          
-------------------------------------------------------------------------------
The SCAN functional is recognized
Active option DFTDOPT                   ...         4   

molecular C6(AA) [au] = 92.309994 


            DFT-D V3
 parameters
 s6 scaling factor         :     1.0000 
 a1 scaling factor         :     0.5380 
 s8 scaling factor         :     0.0000 
 a2 scaling factor         :     5.4200 
 ad hoc parameters k1-k3   :    16.0000     1.3333    -4.0000 

 Edisp/kcal,au: -0.000000000000  -0.000000000000 
 E6   /kcal   :  -0.000000000 
 E8   /kcal   :  -0.000000000 
 % E8         :          -nan 

-------------------------   ----------------
Dispersion correction            0.000000000
-------------------------   ----------------


-------------------------   --------------------
FINAL SINGLE POINT ENERGY      -460.156679908911
-------------------------   --------------------


                            ***************************************
                            *     ORCA property calculations      *
                            ***************************************

                                    ---------------------
                                    Active property flags
                                    ---------------------
   (+) Dipole Moment


------------------------------------------------------------------------------
                       ORCA ELECTRIC PROPERTIES CALCULATION
------------------------------------------------------------------------------

Dipole Moment Calculation                       ... on
Quadrupole Moment Calculation                   ... off
Polarizability Calculation                      ... off
GBWName                                         ... 73_Cl.gbw
Electron density file                           ... 73_Cl.scfp
The origin for moment calculation is the CENTER OF MASS  = ( 0.000000,  0.000000  0.000000)

-------------
DIPOLE MOMENT
-------------
                                X             Y             Z
Electronic contribution:      0.00000      -0.00000      -0.00000
Nuclear contribution   :      0.00000       0.00000       0.00000
                        -----------------------------------------
Total Dipole Moment    :      0.00000      -0.00000      -0.00000
                        -----------------------------------------
Magnitude (a.u.)       :      0.00000
Magnitude (Debye)      :      0.00000



--------------------
Rotational spectrum 
--------------------
 
Rotational constants in cm-1:     0.000000     0.000000     0.000000 
Rotational constants in MHz :     0.000000     0.000000     0.000000 

 Dipole components along the rotational axes: 
x,y,z [a.u.] :     0.000000    -0.000000    -0.000000 
x,y,z [Debye]:     0.000000    -0.000000    -0.000000 

 

Timings for individual modules:

Sum of individual times         ...        2.010 sec (=   0.034 min)
GTO integral calculation        ...        0.593 sec (=   0.010 min)  29.5 %
SCF iterations                  ...        1.417 sec (=   0.024 min)  70.5 %
                             ****ORCA TERMINATED NORMALLY****
TOTAL RUN TIME: 0 days 0 hours 0 minutes 2 seconds 512 msec
