
                                 *****************
                                 * O   R   C   A *
                                 *****************

           --- An Ab Initio, DFT and Semiempirical electronic structure package ---

                  #######################################################
                  #                        -***-                        #
                  #          Department of theory and spectroscopy      #
                  #               Directorship: Frank Neese             #
                  #        Max Planck Institute fuer Kohlenforschung    #
                  #                Kaiser Wilhelm Platz 1               #
                  #                 D-45470 Muelheim/Ruhr               #
                  #                      Germany                        #
                  #                                                     #
                  #                  All rights reserved                #
                  #                        -***-                        #
                  #######################################################


                         Program Version 4.2.0 -  RELEASE  -


 With contributions from (in alphabetic order):
   Daniel Aravena         : Magnetic Suceptibility
   Michael Atanasov       : Ab Initio Ligand Field Theory (pilot matlab implementation)
   Alexander A. Auer      : GIAO ZORA, VPT2
   Ute Becker             : Parallelization
   Giovanni Bistoni       : ED, misc. LED, open-shell LED, HFLED
   Martin Brehm           : Molecular dynamics
   Dmytro Bykov           : SCF Hessian
   Vijay G. Chilkuri      : MRCI spin determinant printing, contributions to CSF-ICE
   Dipayan Datta          : RHF DLPNO-CCSD density
   Achintya Kumar Dutta   : EOM-CC, STEOM-CC
   Dmitry Ganyushin       : Spin-Orbit,Spin-Spin,Magnetic field MRCI
   Miquel Garcia          : C-PCM Hessian, Gaussian charge scheme
   Yang Guo               : DLPNO-NEVPT2, CIM, IAO-localization
   Andreas Hansen         : Spin unrestricted coupled pair/coupled cluster methods
   Benjamin Helmich-Paris : CASSCF linear response (MC-RPA)
   Lee Huntington         : MR-EOM, pCC
   Robert Izsak           : Overlap fitted RIJCOSX, COSX-SCS-MP3, EOM
   Christian Kollmar      : KDIIS, OOCD, Brueckner-CCSD(T), CCSD density
   Simone Kossmann        : Meta GGA functionals, TD-DFT gradient, OOMP2, MP2 Hessian
   Martin Krupicka        : AUTO-CI
   Lucas Lang             : DCDCAS
   Dagmar Lenk            : GEPOL surface, SMD
   Dimitrios Liakos       : Extrapolation schemes; Compound Job, initial MDCI parallelization
   Dimitrios Manganas     : Further ROCIS development; embedding schemes
   Dimitrios Pantazis     : SARC Basis sets
   Taras Petrenko         : DFT Hessian,TD-DFT gradient, ASA, ECA, R-Raman, ABS, FL, XAS/XES, NRVS
   Peter Pinski           : DLPNO-MP2, DLPNO-MP2 Gradient
   Christoph Reimann      : Effective Core Potentials
   Marius Retegan         : Local ZFS, SOC
   Christoph Riplinger    : Optimizer, TS searches, QM/MM, DLPNO-CCSD(T), (RO)-DLPNO pert. Triples
   Tobias Risthaus        : Range-separated hybrids, TD-DFT gradient, RPA, STAB
   Michael Roemelt        : Original ROCIS implementation
   Masaaki Saitow         : Open-shell DLPNO-CCSD energy and density
   Barbara Sandhoefer     : DKH picture change effects
   Avijit Sen             : IP-ROCIS
   Kantharuban Sivalingam : CASSCF convergence, NEVPT2, FIC-MRCI
   Bernardo de Souza      : ESD, SOC TD-DFT
   Georgi Stoychev        : AutoAux, RI-MP2 NMR
   Willem Van den Heuvel  : Paramagnetic NMR
   Boris Wezisla          : Elementary symmetry handling
   Frank Wennmohs         : Technical directorship


 We gratefully acknowledge several colleagues who have allowed us to
 interface, adapt or use parts of their codes:
   Stefan Grimme, W. Hujo, H. Kruse,             : VdW corrections, initial TS optimization,
                  C. Bannwarth                     DFT functionals, gCP, sTDA/sTD-DF
   Ed Valeev, F. Pavosevic, A. Kumar             : LibInt (2-el integral package), F12 methods
   Garnet Chan, S. Sharma, J. Yang, R. Olivares  : DMRG
   Ulf Ekstrom                                   : XCFun DFT Library
   Mihaly Kallay                                 : mrcc  (arbitrary order and MRCC methods)
   Andreas Klamt, Michael Diedenhofen            : otool_cosmo (COSMO solvation model)
   Jiri Pittner, Ondrej Demel                    : Mk-CCSD
   Frank Weinhold                                : gennbo (NPA and NBO analysis)
   Christopher J. Cramer and Donald G. Truhlar   : smd solvation model
   Lars Goerigk                                  : TD-DFT with DH, B97 family of functionals
   V. Asgeirsson, H. Jonsson                     : NEB implementation
   FAccTs GmbH                                   : IRC, NEB, NEB-TS, Multilevel, MM, QM/MM, CI optimization
   S Lehtola, MJT Oliveira, MAL Marques          : LibXC Library


 Your calculation uses the libint2 library for the computation of 2-el integrals
 For citations please refer to: http://libint.valeyev.net

 Your ORCA version has been built with support for libXC version: 4.2.3
 For citations please refer to: https://tddft.org/programs/libxc/

 This ORCA versions uses:
   CBLAS   interface :  Fast vector & matrix operations
   LAPACKE interface :  Fast linear algebra routines
   SCALAPACK package :  Parallel linear algebra routines


Your calculation utilizes the DFT-NL dispersion correction.
Cite in your paper:
Vydrov, O. A.; Van Voorhis, T. J. Chem. Phys. 2010, 133, 244103
Hujo, W.; Grimme, S. J. Chem. Theory Comput. 2011, 7, 3866 
   

----- Orbital basis set information -----
Your calculation utilizes the basis: aug-cc-pVTZ 
    H, B-Ne : Obtained from the ccRepo (grant-hill.group.shef.ac.uk/ccrepo) Feb. 2017
              R. A. Kendall, T. H. Dunning, Jr., R. J. Harrison, J. Chem. Phys. 96, 6796 (1992)
         He : Obtained from the ccRepo (grant-hill.group.shef.ac.uk/ccrepo) Feb. 2017
              D. E. Woon, T. H. Dunning, Jr., J. Chem. Phys. 100, 2975 (1994)
  Li-Be, Na : Obtained from the ccRepo (grant-hill.group.shef.ac.uk/ccrepo) Feb. 2017
              B. P. Prascher, D. E. Woon, K. A. Peterson, T. H. Dunning, Jr., A. K. Wilson, Theor. Chem. Acc. 128, 69 (2011)
         Mg : Obtained from the Peterson Research Group Website (tyr0.chem.wsu.edu/~kipeters) Feb. 2017
              B. P. Prascher, D. E. Woon, K. A. Peterson, T. H. Dunning, Jr., A. K. Wilson, Theor. Chem. Acc. 128, 69 (2011)
      Al-Ar : Obtained from the ccRepo (grant-hill.group.shef.ac.uk/ccrepo) Feb. 2017
              D. E. Woon, T. H. Dunning, Jr., J. Chem. Phys. 98, 1358 (1993)
      Sc-Zn : Obtained from the ccRepo (grant-hill.group.shef.ac.uk/ccrepo) Feb. 2017
              N. B. Balabanov, K. A. Peterson, J. Chem. Phys. 123, 064107 (2005)
              N. B. Balabanov, K. A. Peterson, J. Chem. Phys. 125, 074110 (2006)
      Ga-Kr : Obtained from the ccRepo (grant-hill.group.shef.ac.uk/ccrepo) Feb. 2017
              A. K. Wilson, D. E. Woon, K. A. Peterson, T. H. Dunning, Jr., J. Chem. Phys. 110, 7667 (1999)
     Ag, Au : Obtained from the Peterson Research Group Website (tyr0.chem.wsu.edu/~kipeters) Feb. 2017
              K. A. Peterson, C. Puzzarini, Theor. Chem. Acc. 114, 283 (2005)

----- AuxJK basis set information -----
Your calculation utilizes the auxiliary basis: def2/JK
   H-Ba, Hf-Rn: F. Weigend, J. Comput. Chem. 29, 167 (2008).

================================================================================
                                        WARNINGS
                       Please study these warnings very carefully!
================================================================================


INFO   : the flag for use of LIBINT has been found!

================================================================================
                                       INPUT FILE
================================================================================
NAME = 03_ScCl.in
|  1> #
|  2> # 03_ScCl wb97m-v/aug-cc-pvtz
|  3> #
|  4> ! wb97m-v aug-cc-pvtz def2/jk grid4 nofinalgrid
|  5> 
|  6> *xyz 0 1
|  7>   Sc  0.00000000000000      0.00000000000000     -0.11786902866458
|  8>   Cl  0.00000000000000      0.00000000000000      2.11786902866458
|  9> *
| 10> 
| 11> %pal
| 12> nprocs 24
| 13> end
| 14> 
| 15> 
| 16>                          ****END OF INPUT****
================================================================================

                       ****************************
                       * Single Point Calculation *
                       ****************************

---------------------------------
CARTESIAN COORDINATES (ANGSTROEM)
---------------------------------
  Sc     0.000000    0.000000   -0.117869
  Cl     0.000000    0.000000    2.117869

----------------------------
CARTESIAN COORDINATES (A.U.)
----------------------------
  NO LB      ZA    FRAG     MASS         X           Y           Z
   0 Sc   21.0000    0    44.960    0.000000    0.000000   -0.222740
   1 Cl   17.0000    0    35.453    0.000000    0.000000    4.002192

--------------------------------
INTERNAL COORDINATES (ANGSTROEM)
--------------------------------
 Sc     0   0   0     0.000000000000     0.00000000     0.00000000
 Cl     1   0   0     2.235738057329     0.00000000     0.00000000

---------------------------
INTERNAL COORDINATES (A.U.)
---------------------------
 Sc     0   0   0     0.000000000000     0.00000000     0.00000000
 Cl     1   0   0     4.224932635537     0.00000000     0.00000000

---------------------
BASIS SET INFORMATION
---------------------
There are 2 groups of distinct atoms

 Group   1 Type Sc  : 116s77p23d3f2g contracted to 8s7p5d3f2g pattern {19191919191911/151515151511/77711/111/11}
 Group   2 Type Cl  : 42s17p3d2f contracted to 6s5p3d2f pattern {131313111/77111/111/11}

Atom   0Sc   basis set group =>   1
Atom   1Cl   basis set group =>   2
----------------------------------
AUXILIARY/JK BASIS SET INFORMATION
----------------------------------
There are 2 groups of distinct atoms

 Group   1 Type Sc  : 19s14p12d10f7g3h1i contracted to 16s13p11d9f5g3h1i pattern {4111111111111111/2111111111111/21111111111/211111111/31111/111/1}
 Group   2 Type Cl  : 16s12p10d4f1g contracted to 13s11p9d4f1g pattern {4111111111111/21111111111/211111111/1111/1}

Atom   0Sc   basis set group =>   1
Atom   1Cl   basis set group =>   2


           ************************************************************
           *        Program running with 24 parallel MPI-processes    *
           *              working on a common directory               *
           ************************************************************
------------------------------------------------------------------------------
                           ORCA GTO INTEGRAL CALCULATION
------------------------------------------------------------------------------

                         BASIS SET STATISTICS AND STARTUP INFO

 # of primitive gaussian shells          ...  285
 # of primitive gaussian functions       ...  623
 # of contracted shells                  ...   41
 # of contracted basis functions         ...  143
 Highest angular momentum                ...    4
 Maximum contraction depth               ...   19
 Integral package used                   ... LIBINT
 Integral threshhold            Thresh   ...  1.000e-10
 Primitive cut-off              TCut     ...  1.000e-11


------------------------------ INTEGRAL EVALUATION ----------------------------


 * One electron integrals 
 Pre-screening matrix                    ... done
 Shell pair data                         ... done (   0.001 sec)



           ************************************************************
           *        Program running with 24 parallel MPI-processes    *
           *              working on a common directory               *
           ************************************************************
-------------------------------------------------------------------------------
                                 ORCA SCF
-------------------------------------------------------------------------------

------------
SCF SETTINGS
------------
Hamiltonian:
 Density Functional     Method          .... DFT(GTOs)
 Exchange Functional    Exchange        .... WB97M-V
 Correlation Functional Correlation     .... WB97M-V
 Gradients option       PostSCFGGA      .... off
 Hybrid DFT is turned on
   Fraction HF Exchange ScalHFX         ....  0.150000
   Scaling of DF-GGA-X  ScalDFX         ....  0.000000
   Scaling of DF-GGA-C  ScalDFC         ....  1.000000
   Scaling of DF-LDA-C  ScalLDAC        ....  1.000000
   Perturbative correction              ....  0.000000
   Density functional embedding theory  .... OFF
 Long-range corrected/Screened/Range-Separated Hybrid DFT is turned on
   Amount of maximum screened exact exchange              ....  0.850000
   Range separation parameter mu (erf(mu*r12)/r12)        ....  0.300000
   NL short-range parameter             ....  6.000000
   NL long-range parameter              ....  0.010000


General Settings:
 Integral files         IntName         .... 03_ScCl
 Hartree-Fock type      HFTyp           .... RHF
 Total Charge           Charge          ....    0
 Multiplicity           Mult            ....    1
 Number of Electrons    NEL             ....   38
 Basis Dimension        Dim             ....  143
 Nuclear Repulsion      ENuc            ....     84.4983886837 Eh

Convergence Acceleration:
 DIIS                   CNVDIIS         .... on
   Start iteration      DIISMaxIt       ....    12
   Startup error        DIISStart       ....  0.200000
   # of expansion vecs  DIISMaxEq       ....     5
   Bias factor          DIISBfac        ....   1.050
   Max. coefficient     DIISMaxC        ....  10.000
 Newton-Raphson         CNVNR           .... off
 SOSCF                  CNVSOSCF        .... off
 Level Shifting         CNVShift        .... on
   Level shift para.    LevelShift      ....    0.2500
   Turn off err/grad.   ShiftErr        ....    0.0010
 Zerner damping         CNVZerner       .... off
 Static damping         CNVDamp         .... on
   Fraction old density DampFac         ....    0.7000
   Max. Damping (<1)    DampMax         ....    0.9800
   Min. Damping (>=0)   DampMin         ....    0.0000
   Turn off err/grad.   DampErr         ....    0.1000
 Fernandez-Rico         CNVRico         .... off

SCF Procedure:
 Maximum # iterations   MaxIter         ....   125
 SCF integral mode      SCFMode         .... Direct
   Integral package                     .... LIBINT
 Reset frequency        DirectResetFreq ....    20
 Integral Threshold     Thresh          ....  1.000e-10 Eh
 Primitive CutOff       TCut            ....  1.000e-11 Eh

Convergence Tolerance:
 Convergence Check Mode ConvCheckMode   .... Total+1el-Energy
 Convergence forced     ConvForced      .... 0
 Energy Change          TolE            ....  1.000e-06 Eh
 1-El. energy change                    ....  1.000e-03 Eh
 DIIS Error             TolErr          ....  1.000e-06


Diagonalization of the overlap matrix:
Smallest eigenvalue                        ... 7.146e-05
Time for diagonalization                   ...    0.004 sec
Threshold for overlap eigenvalues          ... 1.000e-08
Number of eigenvalues below threshold      ... 0
Time for construction of square roots      ...    0.003 sec
Total time needed                          ...    0.007 sec

-------------------
DFT GRID GENERATION
-------------------

General Integration Accuracy     IntAcc      ...  4.670
Radial Grid Type                 RadialGrid  ... Gauss-Chebyshev
Angular Grid (max. acc.)         AngularGrid ... Lebedev-302
Angular grid pruning method      GridPruning ... 3 (G Style)
Weight generation scheme         WeightScheme... Becke
Basis function cutoff            BFCut       ...    1.0000e-10
Integration weight cutoff        WCut        ...    1.0000e-14
Grids for H and He will be reduced by one unit

# of grid points (after initial pruning)     ...  16402 (   0.0 sec)
# of grid points (after weights+screening)   ...  16374 (   0.0 sec)
nearest neighbour list constructed           ...    0.0 sec
Grid point re-assignment to atoms done       ...    0.0 sec
Grid point division into batches done        ...    0.1 sec
Reduced shell lists constructed in    0.1 sec

Total number of grid points                  ...    16374
Total number of batches                      ...      256
Average number of points per batch           ...       63
Average number of grid points per atom       ...     8187
Average number of shells per batch           ...    20.50 (50.00%)
Average number of basis functions per batch  ...    65.67 (45.92%)
Average number of large shells per batch     ...    13.42 (65.45%)
Average number of large basis fcns per batch ...    44.25 (67.39%)
Maximum spatial batch extension              ...  26.53, 26.21, 19.04 au
Average spatial batch extension              ...   0.92,  0.91,  0.70 au

Time for grid setup =    0.191 sec

------------------------------
INITIAL GUESS: MODEL POTENTIAL
------------------------------
Loading Hartree-Fock densities                     ... done
Calculating cut-offs                               ... done
Setting up the integral package                    ... done
Initializing the effective Hamiltonian             ... done
Starting the Coulomb interaction                   ... done (   0.0 sec)
Reading the grid                                   ... done
Mapping shells                                     ... done
Starting the XC term evaluation                    ... done (   0.0 sec)
  promolecular density results
     # of electrons  =     37.999999458
     EX              =    -65.248122220
     EC              =     -1.497527614
     EX+EC           =    -66.745649834
Transforming the Hamiltonian                       ... done (   0.0 sec)
Diagonalizing the Hamiltonian                      ... done (   0.0 sec)
Back transforming the eigenvectors                 ... done (   0.0 sec)
Now organizing SCF variables                       ... done
                      ------------------
                      INITIAL GUESS DONE (   0.3 sec)
                      ------------------
--------------
SCF ITERATIONS
--------------
ITER       Energy         Delta-E        Max-DP      RMS-DP      [F,P]     Damp
               ***  Starting incremental Fock matrix formation  ***
  0  -1221.0054748310   0.000000000000 0.10310398  0.00222518  0.1044458 0.7000
  1  -1221.0187613865  -0.013286555449 0.08360760  0.00172699  0.0649744 0.7000
                               ***Turning on DIIS***
  2  -1221.0263472063  -0.007585819852 0.20903127  0.00405856  0.0349991 0.0000
  3  -1221.0398424472  -0.013495240834 0.06553237  0.00088794  0.0227009 0.0000
  4  -1221.0418082946  -0.001965847468 0.04583157  0.00090088  0.0074455 0.0000
  5  -1221.0421656270  -0.000357332333 0.03392009  0.00042424  0.0060094 0.0000
  6  -1221.0424460825  -0.000280455522 0.03459329  0.00056942  0.0041681 0.0000
  7  -1221.0426367392  -0.000190656669 0.01232346  0.00015442  0.0034145 0.0000
  8  -1221.0427233048  -0.000086565597 0.01215225  0.00023852  0.0023224 0.0000
  9  -1221.0427660010  -0.000042696272 0.00708387  0.00010308  0.0017208 0.0000
 10  -1221.0427845824  -0.000018581350 0.00485058  0.00007912  0.0010559 0.0000
 11  -1221.0427916196  -0.000007037228 0.00562243  0.00006481  0.0006061 0.0000
 12  -1221.0427946880  -0.000003068397 0.00086278  0.00001860  0.0001043 0.0000
 13  -1221.0427947440  -0.000000056033 0.00018163  0.00000386  0.0000339 0.0000
                 **** Energy Check signals convergence ****

               *****************************************************
               *                     SUCCESS                       *
               *           SCF CONVERGED AFTER  14 CYCLES          *
               *****************************************************


Setting up the DFT-NL grid :

General Integration Accuracy     IntAcc      ...  4.340
Radial Grid Type                 RadialGrid  ... Gauss-Chebyshev
Angular Grid (max. acc.)         AngularGrid ... Lebedev-110
Angular grid pruning method      GridPruning ... 3 (G Style)
Weight generation scheme         WeightScheme... Becke
Basis function cutoff            BFCut       ...    1.0000e-10
Integration weight cutoff        WCut        ...    1.0000e-14
Grids for H and He will be reduced by one unit

# of grid points (after initial pruning)     ...   4816 (   0.0 sec)
# of grid points (after weights+screening)   ...   4791 (   0.0 sec)
nearest neighbour list constructed           ...    0.0 sec
Grid point re-assignment to atoms done       ...    0.0 sec
Grid point division into batches done        ...    0.0 sec
Reduced shell lists constructed in    0.0 sec

Total number of grid points                  ...     4791
Total number of batches                      ...       76
Average number of points per batch           ...       63
Average number of grid points per atom       ...     2396
Average number of shells per batch           ...    23.20 (56.59%)
Average number of basis functions per batch  ...    77.60 (54.27%)
Average number of large shells per batch     ...    19.20 (82.76%)
Average number of large basis fcns per batch ...    67.20 (86.60%)
Maximum spatial batch extension              ...  20.56, 31.13, 17.50 au
Average spatial batch extension              ...   0.99,  1.36,  0.92 au

Final grid set up in    0.0 sec

-------------------------------------------------------------------------------
                         DFT-NL dispersion correction                          
-------------------------------------------------------------------------------

SC Energy -1221.042794752 
NL    Energy 0.158284760 
SC+NL Energy -1220.884509991 
NL done in    0.0 sec
-------------------------------------------------------------------------------

----------------
TOTAL SCF ENERGY
----------------

Total Energy       :        -1220.88450999 Eh          -33221.95649 eV

Components:
Nuclear Repulsion  :           84.49838868 Eh            2299.31805 eV
Electronic Energy  :        -1305.38289868 Eh          -35521.27454 eV
One Electron Energy:        -1844.34415685 Eh          -50187.15597 eV
Two Electron Energy:          538.96125817 Eh           14665.88143 eV

Virial components:
Potential Energy   :        -2439.71719792 Eh          -66388.08006 eV
Kinetic Energy     :         1218.83268793 Eh           33166.12357 eV
Virial Ratio       :            2.00168343


DFT components:
N(Alpha)           :       18.999991651225 electrons
N(Beta)            :       18.999991651225 electrons
N(Total)           :       37.999983302450 electrons
E(X)               :      -50.557646470377 Eh       
E(C)               :       -1.739796365209 Eh       
NL Energy, E(C,NL) :        0.158284760434 Eh       
E(XC)              :      -52.139158075152 Eh       
DFET-embed. en.    :        0.000000000000 Eh       

---------------
SCF CONVERGENCE
---------------

  Last Energy change         ...   -7.8592e-09  Tolerance :   1.0000e-06
  Last MAX-Density change    ...    1.0830e-04  Tolerance :   1.0000e-05
  Last RMS-Density change    ...    1.7424e-06  Tolerance :   1.0000e-06
  Last DIIS Error            ...    1.1729e-05  Tolerance :   1.0000e-06

             **** THE GBW FILE WAS UPDATED (03_ScCl.gbw) ****
             **** DENSITY FILE WAS UPDATED (03_ScCl.scfp) ****
             **** ENERGY FILE WAS UPDATED (03_ScCl.en.tmp) ****
             **** THE GBW FILE WAS UPDATED (03_ScCl.gbw) ****
             **** DENSITY FILE WAS UPDATED (03_ScCl.scfp) ****
----------------
ORBITAL ENERGIES
----------------

  NO   OCC          E(Eh)            E(eV) 
   0   2.0000    -162.186709     -4413.3247 
   1   2.0000    -101.866029     -2771.9156 
   2   2.0000     -17.900114      -487.0869 
   3   2.0000     -14.756751      -401.5516 
   4   2.0000     -14.756751      -401.5516 
   5   2.0000     -14.741823      -401.1454 
   6   2.0000      -9.624822      -261.9047 
   7   2.0000      -7.324597      -199.3124 
   8   2.0000      -7.323863      -199.2924 
   9   2.0000      -7.323863      -199.2924 
  10   2.0000      -2.295954       -62.4761 
  11   2.0000      -1.471015       -40.0283 
  12   2.0000      -1.471015       -40.0283 
  13   2.0000      -1.461212       -39.7616 
  14   2.0000      -0.905438       -24.6382 
  15   2.0000      -0.448316       -12.1993 
  16   2.0000      -0.421421       -11.4674 
  17   2.0000      -0.421421       -11.4674 
  18   2.0000      -0.256629        -6.9832 
  19   0.0000      -0.021045        -0.5727 
  20   0.0000      -0.009075        -0.2469 
  21   0.0000      -0.009075        -0.2469 
  22   0.0000      -0.004094        -0.1114 
  23   0.0000      -0.004093        -0.1114 
  24   0.0000       0.009988         0.2718 
  25   0.0000       0.014611         0.3976 
  26   0.0000       0.016747         0.4557 
  27   0.0000       0.016747         0.4557 
  28   0.0000       0.028602         0.7783 
  29   0.0000       0.028603         0.7783 
  30   0.0000       0.029161         0.7935 
  31   0.0000       0.029161         0.7935 
  32   0.0000       0.029741         0.8093 
  33   0.0000       0.042048         1.1442 
  34   0.0000       0.042048         1.1442 
  35   0.0000       0.074463         2.0262 
  36   0.0000       0.099397         2.7047 
  37   0.0000       0.118313         3.2195 
  38   0.0000       0.120640         3.2828 
  39   0.0000       0.120640         3.2828 
  40   0.0000       0.120898         3.2898 
  41   0.0000       0.120898         3.2898 
  42   0.0000       0.132706         3.6111 
  43   0.0000       0.132706         3.6111 
  44   0.0000       0.132969         3.6183 
  45   0.0000       0.136862         3.7242 
  46   0.0000       0.136864         3.7243 
  47   0.0000       0.141659         3.8547 
  48   0.0000       0.141659         3.8547 
  49   0.0000       0.146773         3.9939 
  50   0.0000       0.146773         3.9939 
  51   0.0000       0.172801         4.7021 
  52   0.0000       0.181305         4.9336 
  53   0.0000       0.181306         4.9336 
  54   0.0000       0.225722         6.1422 
  55   0.0000       0.317200         8.6314 
  56   0.0000       0.349367         9.5068 
  57   0.0000       0.349369         9.5068 
  58   0.0000       0.388381        10.5684 
  59   0.0000       0.390364        10.6224 
  60   0.0000       0.390364        10.6224 
  61   0.0000       0.402543        10.9538 
  62   0.0000       0.402544        10.9538 
  63   0.0000       0.416586        11.3359 
  64   0.0000       0.416586        11.3359 
  65   0.0000       0.421374        11.4662 
  66   0.0000       0.426416        11.6034 
  67   0.0000       0.426416        11.6034 
  68   0.0000       0.430374        11.7111 
  69   0.0000       0.430382        11.7113 
  70   0.0000       0.436909        11.8889 
  71   0.0000       0.444260        12.0889 
  72   0.0000       0.444268        12.0891 
  73   0.0000       0.456188        12.4135 
  74   0.0000       0.456188        12.4135 
  75   0.0000       0.500463        13.6183 
  76   0.0000       0.514039        13.9877 
  77   0.0000       0.514039        13.9877 
  78   0.0000       0.561676        15.2840 
  79   0.0000       0.561676        15.2840 
  80   0.0000       0.630160        17.1475 
  81   0.0000       0.637176        17.3384 
  82   0.0000       0.637178        17.3385 
  83   0.0000       0.643865        17.5205 
  84   0.0000       0.643865        17.5205 
  85   0.0000       0.792245        21.5581 
  86   0.0000       0.792245        21.5581 
  87   0.0000       0.850304        23.1380 
  88   0.0000       0.870008        23.6741 
  89   0.0000       0.870026        23.6746 
  90   0.0000       0.905712        24.6457 
  91   0.0000       0.987798        26.8793 
  92   0.0000       0.987798        26.8793 
  93   0.0000       1.028567        27.9887 
  94   0.0000       1.143476        31.1156 
  95   0.0000       1.143476        31.1156 
  96   0.0000       1.250234        34.0206 
  97   0.0000       1.277027        34.7497 
  98   0.0000       1.277038        34.7500 
  99   0.0000       1.302696        35.4482 
 100   0.0000       1.302696        35.4482 
 101   0.0000       1.392742        37.8984 
 102   0.0000       1.392743        37.8985 
 103   0.0000       1.405377        38.2423 
 104   0.0000       1.595364        43.4120 
 105   0.0000       1.595364        43.4120 
 106   0.0000       1.683646        45.8143 
 107   0.0000       1.683646        45.8143 
 108   0.0000       1.711961        46.5848 
 109   0.0000       1.840442        50.0810 
 110   0.0000       1.840475        50.0819 
 111   0.0000       1.844702        50.1969 
 112   0.0000       1.844702        50.1969 
 113   0.0000       1.895947        51.5913 
 114   0.0000       1.945507        52.9399 
 115   0.0000       1.945530        52.9406 
 116   0.0000       1.967565        53.5402 
 117   0.0000       2.102383        57.2087 
 118   0.0000       2.102383        57.2087 
 119   0.0000       2.105558        57.2951 
 120   0.0000       2.105558        57.2951 
 121   0.0000       2.131755        58.0080 
 122   0.0000       2.131777        58.0086 
 123   0.0000       2.189105        59.5686 
 124   0.0000       2.226305        60.5809 
 125   0.0000       2.226305        60.5809 
 126   0.0000       2.355413        64.0941 
 127   0.0000       2.355422        64.0943 
 128   0.0000       2.358409        64.1756 
 129   0.0000       2.460798        66.9617 
 130   0.0000       2.460798        66.9617 
 131   0.0000       2.664925        72.5163 
 132   0.0000       2.664925        72.5163 
 133   0.0000       2.701575        73.5136 
 134   0.0000       2.854026        77.6620 
 135   0.0000       2.854026        77.6620 
 136   0.0000       2.941953        80.0546 
 137   0.0000       2.942050        80.0573 
 138   0.0000       2.976257        80.9881 
 139   0.0000       3.056921        83.1830 
 140   0.0000       3.056921        83.1830 
 141   0.0000       3.509532        95.4992 
 142   0.0000       6.322087       172.0327 

                    ********************************
                    * MULLIKEN POPULATION ANALYSIS *
                    ********************************

-----------------------
MULLIKEN ATOMIC CHARGES
-----------------------
   0 Sc:    0.284705
   1 Cl:   -0.284705
Sum of atomic charges:   -0.0000000

--------------------------------
MULLIKEN REDUCED ORBITAL CHARGES
--------------------------------
  0 Scs       :     7.476905  s :     7.476905
      pz      :     4.130450  p :    12.201347
      px      :     4.035448
      py      :     4.035448
      dz2     :     0.772120  d :     0.984899
      dxz     :     0.106389
      dyz     :     0.106389
      dx2y2   :     0.000000
      dxy     :     0.000000
      f0      :     0.008344  f :     0.042801
      f+1     :     0.017229
      f-1     :     0.017229
      f+2     :     0.000000
      f-2     :    -0.000000
      f+3     :     0.000000
      f-3     :     0.000000
      g0      :    -0.000613  g :     0.009344
      g+1     :     0.004979
      g-1     :     0.004979
      g+2     :     0.000000
      g-2     :    -0.000000
      g+3     :     0.000000
      g-3     :     0.000000
      g+4     :     0.000000
      g-4     :     0.000000
  1 Cls       :     5.895048  s :     5.895048
      pz      :     3.708650  p :    11.369996
      px      :     3.830673
      py      :     3.830673
      dz2     :     0.006660  d :     0.015698
      dxz     :     0.004519
      dyz     :     0.004519
      dx2y2   :     0.000000
      dxy     :     0.000000
      f0      :     0.002438  f :     0.003964
      f+1     :     0.000763
      f-1     :     0.000763
      f+2     :     0.000000
      f-2     :    -0.000000
      f+3     :     0.000000
      f-3     :     0.000000


                     *******************************
                     * LOEWDIN POPULATION ANALYSIS *
                     *******************************

----------------------
LOEWDIN ATOMIC CHARGES
----------------------
   0 Sc:   -0.142769
   1 Cl:    0.142769

-------------------------------
LOEWDIN REDUCED ORBITAL CHARGES
-------------------------------
  0 Scs       :     7.157925  s :     7.157925
      pz      :     4.187254  p :    12.213750
      px      :     4.013248
      py      :     4.013248
      dz2     :     0.918989  d :     1.259895
      dxz     :     0.170453
      dyz     :     0.170453
      dx2y2   :     0.000000
      dxy     :     0.000000
      f0      :     0.117185  f :     0.301536
      f+1     :     0.092176
      f-1     :     0.092176
      f+2     :     0.000000
      f-2     :     0.000000
      f+3     :     0.000000
      f-3     :     0.000000
      g0      :     0.072346  g :     0.209663
      g+1     :     0.068659
      g-1     :     0.068659
      g+2     :     0.000000
      g-2     :     0.000000
      g+3     :     0.000000
      g-3     :     0.000000
      g+4     :     0.000000
      g-4     :     0.000000
  1 Cls       :     5.555692  s :     5.555692
      pz      :     3.796216  p :    11.025289
      px      :     3.614537
      py      :     3.614537
      dz2     :     0.139341  d :     0.197822
      dxz     :     0.029241
      dyz     :     0.029241
      dx2y2   :     0.000000
      dxy     :     0.000000
      f0      :     0.055052  f :     0.078428
      f+1     :     0.011688
      f-1     :     0.011688
      f+2     :     0.000000
      f-2     :     0.000000
      f+3     :     0.000000
      f-3     :     0.000000


                      *****************************
                      * MAYER POPULATION ANALYSIS *
                      *****************************

  NA   - Mulliken gross atomic population
  ZA   - Total nuclear charge
  QA   - Mulliken gross atomic charge
  VA   - Mayer's total valence
  BVA  - Mayer's bonded valence
  FA   - Mayer's free valence

  ATOM       NA         ZA         QA         VA         BVA        FA
  0 Sc    20.7153    21.0000     0.2847     1.2458     1.2458    -0.0000
  1 Cl    17.2847    17.0000    -0.2847     1.2458     1.2458    -0.0000

  Mayer bond orders larger than 0.100000
B(  0-Sc,  1-Cl) :   1.2458 

-------
TIMINGS
-------

Total SCF time: 0 days 0 hours 3 min 50 sec 

Total time                  ....     230.825 sec
Sum of individual times     ....     230.513 sec  ( 99.9%)

Fock matrix formation       ....     230.125 sec  ( 99.7%)
  XC integration            ....       0.457 sec  (  0.2% of F)
    Basis function eval.    ....       0.078 sec  ( 17.0% of XC)
    Density eval.           ....       0.052 sec  ( 11.3% of XC)
    XC-Functional eval.     ....       0.017 sec  (  3.7% of XC)
    XC-Potential eval.      ....       0.130 sec  ( 28.4% of XC)
Diagonalization             ....       0.040 sec  (  0.0%)
Density matrix formation    ....       0.005 sec  (  0.0%)
Population analysis         ....       0.007 sec  (  0.0%)
Initial guess               ....       0.111 sec  (  0.0%)
Orbital Transformation      ....       0.000 sec  (  0.0%)
Orbital Orthonormalization  ....       0.000 sec  (  0.0%)
DIIS solution               ....       0.019 sec  (  0.0%)
Grid generation             ....       0.207 sec  (  0.1%)

-------------------------   --------------------
FINAL SINGLE POINT ENERGY     -1220.884509991472
-------------------------   --------------------


                            ***************************************
                            *     ORCA property calculations      *
                            ***************************************

                                    ---------------------
                                    Active property flags
                                    ---------------------
   (+) Dipole Moment


------------------------------------------------------------------------------
                       ORCA ELECTRIC PROPERTIES CALCULATION
------------------------------------------------------------------------------

Dipole Moment Calculation                       ... on
Quadrupole Moment Calculation                   ... off
Polarizability Calculation                      ... off
GBWName                                         ... 03_ScCl.gbw
Electron density file                           ... 03_ScCl.scfp
The origin for moment calculation is the CENTER OF MASS  = ( 0.000000,  0.000000  1.639975)

-------------
DIPOLE MOMENT
-------------
                                X             Y             Z
Electronic contribution:      0.00000       0.00000      -2.35518
Nuclear contribution   :      0.00000       0.00000       1.04067
                        -----------------------------------------
Total Dipole Moment    :      0.00000       0.00000      -1.31451
                        -----------------------------------------
Magnitude (a.u.)       :      1.31451
Magnitude (Debye)      :      3.34121



--------------------
Rotational spectrum 
--------------------
 
Rotational constants in cm-1:     0.000000     0.170138     0.170138 
Rotational constants in MHz :     0.000000  5100.617263  5100.617263 

 Dipole components along the rotational axes: 
x,y,z [a.u.] :    -1.314507     0.000000     0.000000 
x,y,z [Debye]:    -3.341212     0.000000     0.000000 

 

Timings for individual modules:

Sum of individual times         ...      234.687 sec (=   3.911 min)
GTO integral calculation        ...        3.419 sec (=   0.057 min)   1.5 %
SCF iterations                  ...      231.268 sec (=   3.854 min)  98.5 %
                             ****ORCA TERMINATED NORMALLY****
TOTAL RUN TIME: 0 days 0 hours 3 minutes 55 seconds 296 msec
