
                                 *****************
                                 * O   R   C   A *
                                 *****************

           --- An Ab Initio, DFT and Semiempirical electronic structure package ---

                  #######################################################
                  #                        -***-                        #
                  #          Department of theory and spectroscopy      #
                  #               Directorship: Frank Neese             #
                  #        Max Planck Institute fuer Kohlenforschung    #
                  #                Kaiser Wilhelm Platz 1               #
                  #                 D-45470 Muelheim/Ruhr               #
                  #                      Germany                        #
                  #                                                     #
                  #                  All rights reserved                #
                  #                        -***-                        #
                  #######################################################


                         Program Version 4.2.0 -  RELEASE  -


 With contributions from (in alphabetic order):
   Daniel Aravena         : Magnetic Suceptibility
   Michael Atanasov       : Ab Initio Ligand Field Theory (pilot matlab implementation)
   Alexander A. Auer      : GIAO ZORA, VPT2
   Ute Becker             : Parallelization
   Giovanni Bistoni       : ED, misc. LED, open-shell LED, HFLED
   Martin Brehm           : Molecular dynamics
   Dmytro Bykov           : SCF Hessian
   Vijay G. Chilkuri      : MRCI spin determinant printing, contributions to CSF-ICE
   Dipayan Datta          : RHF DLPNO-CCSD density
   Achintya Kumar Dutta   : EOM-CC, STEOM-CC
   Dmitry Ganyushin       : Spin-Orbit,Spin-Spin,Magnetic field MRCI
   Miquel Garcia          : C-PCM Hessian, Gaussian charge scheme
   Yang Guo               : DLPNO-NEVPT2, CIM, IAO-localization
   Andreas Hansen         : Spin unrestricted coupled pair/coupled cluster methods
   Benjamin Helmich-Paris : CASSCF linear response (MC-RPA)
   Lee Huntington         : MR-EOM, pCC
   Robert Izsak           : Overlap fitted RIJCOSX, COSX-SCS-MP3, EOM
   Christian Kollmar      : KDIIS, OOCD, Brueckner-CCSD(T), CCSD density
   Simone Kossmann        : Meta GGA functionals, TD-DFT gradient, OOMP2, MP2 Hessian
   Martin Krupicka        : AUTO-CI
   Lucas Lang             : DCDCAS
   Dagmar Lenk            : GEPOL surface, SMD
   Dimitrios Liakos       : Extrapolation schemes; Compound Job, initial MDCI parallelization
   Dimitrios Manganas     : Further ROCIS development; embedding schemes
   Dimitrios Pantazis     : SARC Basis sets
   Taras Petrenko         : DFT Hessian,TD-DFT gradient, ASA, ECA, R-Raman, ABS, FL, XAS/XES, NRVS
   Peter Pinski           : DLPNO-MP2, DLPNO-MP2 Gradient
   Christoph Reimann      : Effective Core Potentials
   Marius Retegan         : Local ZFS, SOC
   Christoph Riplinger    : Optimizer, TS searches, QM/MM, DLPNO-CCSD(T), (RO)-DLPNO pert. Triples
   Tobias Risthaus        : Range-separated hybrids, TD-DFT gradient, RPA, STAB
   Michael Roemelt        : Original ROCIS implementation
   Masaaki Saitow         : Open-shell DLPNO-CCSD energy and density
   Barbara Sandhoefer     : DKH picture change effects
   Avijit Sen             : IP-ROCIS
   Kantharuban Sivalingam : CASSCF convergence, NEVPT2, FIC-MRCI
   Bernardo de Souza      : ESD, SOC TD-DFT
   Georgi Stoychev        : AutoAux, RI-MP2 NMR
   Willem Van den Heuvel  : Paramagnetic NMR
   Boris Wezisla          : Elementary symmetry handling
   Frank Wennmohs         : Technical directorship


 We gratefully acknowledge several colleagues who have allowed us to
 interface, adapt or use parts of their codes:
   Stefan Grimme, W. Hujo, H. Kruse,             : VdW corrections, initial TS optimization,
                  C. Bannwarth                     DFT functionals, gCP, sTDA/sTD-DF
   Ed Valeev, F. Pavosevic, A. Kumar             : LibInt (2-el integral package), F12 methods
   Garnet Chan, S. Sharma, J. Yang, R. Olivares  : DMRG
   Ulf Ekstrom                                   : XCFun DFT Library
   Mihaly Kallay                                 : mrcc  (arbitrary order and MRCC methods)
   Andreas Klamt, Michael Diedenhofen            : otool_cosmo (COSMO solvation model)
   Jiri Pittner, Ondrej Demel                    : Mk-CCSD
   Frank Weinhold                                : gennbo (NPA and NBO analysis)
   Christopher J. Cramer and Donald G. Truhlar   : smd solvation model
   Lars Goerigk                                  : TD-DFT with DH, B97 family of functionals
   V. Asgeirsson, H. Jonsson                     : NEB implementation
   FAccTs GmbH                                   : IRC, NEB, NEB-TS, Multilevel, MM, QM/MM, CI optimization
   S Lehtola, MJT Oliveira, MAL Marques          : LibXC Library


 Your calculation uses the libint2 library for the computation of 2-el integrals
 For citations please refer to: http://libint.valeyev.net

 Your ORCA version has been built with support for libXC version: 4.2.3
 For citations please refer to: https://tddft.org/programs/libxc/

 This ORCA versions uses:
   CBLAS   interface :  Fast vector & matrix operations
   LAPACKE interface :  Fast linear algebra routines
   SCALAPACK package :  Parallel linear algebra routines


Your calculation utilizes the DFT-NL dispersion correction.
Cite in your paper:
Vydrov, O. A.; Van Voorhis, T. J. Chem. Phys. 2010, 133, 244103
Hujo, W.; Grimme, S. J. Chem. Theory Comput. 2011, 7, 3866 
   

----- Orbital basis set information -----
Your calculation utilizes the basis: aug-cc-pVTZ 
    H, B-Ne : Obtained from the ccRepo (grant-hill.group.shef.ac.uk/ccrepo) Feb. 2017
              R. A. Kendall, T. H. Dunning, Jr., R. J. Harrison, J. Chem. Phys. 96, 6796 (1992)
         He : Obtained from the ccRepo (grant-hill.group.shef.ac.uk/ccrepo) Feb. 2017
              D. E. Woon, T. H. Dunning, Jr., J. Chem. Phys. 100, 2975 (1994)
  Li-Be, Na : Obtained from the ccRepo (grant-hill.group.shef.ac.uk/ccrepo) Feb. 2017
              B. P. Prascher, D. E. Woon, K. A. Peterson, T. H. Dunning, Jr., A. K. Wilson, Theor. Chem. Acc. 128, 69 (2011)
         Mg : Obtained from the Peterson Research Group Website (tyr0.chem.wsu.edu/~kipeters) Feb. 2017
              B. P. Prascher, D. E. Woon, K. A. Peterson, T. H. Dunning, Jr., A. K. Wilson, Theor. Chem. Acc. 128, 69 (2011)
      Al-Ar : Obtained from the ccRepo (grant-hill.group.shef.ac.uk/ccrepo) Feb. 2017
              D. E. Woon, T. H. Dunning, Jr., J. Chem. Phys. 98, 1358 (1993)
      Sc-Zn : Obtained from the ccRepo (grant-hill.group.shef.ac.uk/ccrepo) Feb. 2017
              N. B. Balabanov, K. A. Peterson, J. Chem. Phys. 123, 064107 (2005)
              N. B. Balabanov, K. A. Peterson, J. Chem. Phys. 125, 074110 (2006)
      Ga-Kr : Obtained from the ccRepo (grant-hill.group.shef.ac.uk/ccrepo) Feb. 2017
              A. K. Wilson, D. E. Woon, K. A. Peterson, T. H. Dunning, Jr., J. Chem. Phys. 110, 7667 (1999)
     Ag, Au : Obtained from the Peterson Research Group Website (tyr0.chem.wsu.edu/~kipeters) Feb. 2017
              K. A. Peterson, C. Puzzarini, Theor. Chem. Acc. 114, 283 (2005)

----- AuxJK basis set information -----
Your calculation utilizes the auxiliary basis: def2/JK
   H-Ba, Hf-Rn: F. Weigend, J. Comput. Chem. 29, 167 (2008).

================================================================================
                                        WARNINGS
                       Please study these warnings very carefully!
================================================================================


WARNING: your system is open-shell and RHF/RKS was chosen
  ===> : WILL SWITCH to UHF/UKS


INFO   : the flag for use of LIBINT has been found!

================================================================================
                                       INPUT FILE
================================================================================
NAME = 09_TiCl.in
|  1> #
|  2> # 09_TiCl wb97m-v/aug-cc-pvtz
|  3> #
|  4> ! wb97m-v aug-cc-pvtz def2/jk grid4 nofinalgrid
|  5> 
|  6> *xyz 0 4
|  7>   Ti  0.00000000000000      0.00000000000000     -0.11680209456005
|  8>   Cl  0.00000000000000      0.00000000000000      2.11680209456005
|  9> *
| 10> 
| 11> %pal
| 12> nprocs 24
| 13> end
| 14> 
| 15> 
| 16>                          ****END OF INPUT****
================================================================================

                       ****************************
                       * Single Point Calculation *
                       ****************************

---------------------------------
CARTESIAN COORDINATES (ANGSTROEM)
---------------------------------
  Ti     0.000000    0.000000   -0.116802
  Cl     0.000000    0.000000    2.116802

----------------------------
CARTESIAN COORDINATES (A.U.)
----------------------------
  NO LB      ZA    FRAG     MASS         X           Y           Z
   0 Ti   22.0000    0    47.900    0.000000    0.000000   -0.220724
   1 Cl   17.0000    0    35.453    0.000000    0.000000    4.000176

--------------------------------
INTERNAL COORDINATES (ANGSTROEM)
--------------------------------
 Ti     0   0   0     0.000000000000     0.00000000     0.00000000
 Cl     1   0   0     2.233604189120     0.00000000     0.00000000

---------------------------
INTERNAL COORDINATES (A.U.)
---------------------------
 Ti     0   0   0     0.000000000000     0.00000000     0.00000000
 Cl     1   0   0     4.220900209016     0.00000000     0.00000000

---------------------
BASIS SET INFORMATION
---------------------
There are 2 groups of distinct atoms

 Group   1 Type Ti  : 116s77p23d3f2g contracted to 8s7p5d3f2g pattern {19191919191911/151515151511/77711/111/11}
 Group   2 Type Cl  : 42s17p3d2f contracted to 6s5p3d2f pattern {131313111/77111/111/11}

Atom   0Ti   basis set group =>   1
Atom   1Cl   basis set group =>   2
----------------------------------
AUXILIARY/JK BASIS SET INFORMATION
----------------------------------
There are 2 groups of distinct atoms

 Group   1 Type Ti  : 19s14p12d10f7g3h1i contracted to 16s13p11d9f5g3h1i pattern {4111111111111111/2111111111111/21111111111/211111111/31111/111/1}
 Group   2 Type Cl  : 16s12p10d4f1g contracted to 13s11p9d4f1g pattern {4111111111111/21111111111/211111111/1111/1}

Atom   0Ti   basis set group =>   1
Atom   1Cl   basis set group =>   2


           ************************************************************
           *        Program running with 24 parallel MPI-processes    *
           *              working on a common directory               *
           ************************************************************
------------------------------------------------------------------------------
                           ORCA GTO INTEGRAL CALCULATION
------------------------------------------------------------------------------

                         BASIS SET STATISTICS AND STARTUP INFO

 # of primitive gaussian shells          ...  285
 # of primitive gaussian functions       ...  623
 # of contracted shells                  ...   41
 # of contracted basis functions         ...  143
 Highest angular momentum                ...    4
 Maximum contraction depth               ...   19
 Integral package used                   ... LIBINT
 Integral threshhold            Thresh   ...  1.000e-10
 Primitive cut-off              TCut     ...  1.000e-11


------------------------------ INTEGRAL EVALUATION ----------------------------


 * One electron integrals 
 Pre-screening matrix                    ... done
 Shell pair data                         ... done (   0.001 sec)



           ************************************************************
           *        Program running with 24 parallel MPI-processes    *
           *              working on a common directory               *
           ************************************************************
-------------------------------------------------------------------------------
                                 ORCA SCF
-------------------------------------------------------------------------------

------------
SCF SETTINGS
------------
Hamiltonian:
 Density Functional     Method          .... DFT(GTOs)
 Exchange Functional    Exchange        .... WB97M-V
 Correlation Functional Correlation     .... WB97M-V
 Gradients option       PostSCFGGA      .... off
 Hybrid DFT is turned on
   Fraction HF Exchange ScalHFX         ....  0.150000
   Scaling of DF-GGA-X  ScalDFX         ....  0.000000
   Scaling of DF-GGA-C  ScalDFC         ....  1.000000
   Scaling of DF-LDA-C  ScalLDAC        ....  1.000000
   Perturbative correction              ....  0.000000
   Density functional embedding theory  .... OFF
 Long-range corrected/Screened/Range-Separated Hybrid DFT is turned on
   Amount of maximum screened exact exchange              ....  0.850000
   Range separation parameter mu (erf(mu*r12)/r12)        ....  0.300000
   NL short-range parameter             ....  6.000000
   NL long-range parameter              ....  0.010000


General Settings:
 Integral files         IntName         .... 09_TiCl
 Hartree-Fock type      HFTyp           .... UHF
 Total Charge           Charge          ....    0
 Multiplicity           Mult            ....    4
 Number of Electrons    NEL             ....   39
 Basis Dimension        Dim             ....  143
 Nuclear Repulsion      ENuc            ....     88.6066908668 Eh

Convergence Acceleration:
 DIIS                   CNVDIIS         .... on
   Start iteration      DIISMaxIt       ....    12
   Startup error        DIISStart       ....  0.200000
   # of expansion vecs  DIISMaxEq       ....     5
   Bias factor          DIISBfac        ....   1.050
   Max. coefficient     DIISMaxC        ....  10.000
 Newton-Raphson         CNVNR           .... off
 SOSCF                  CNVSOSCF        .... off
 Level Shifting         CNVShift        .... on
   Level shift para.    LevelShift      ....    0.2500
   Turn off err/grad.   ShiftErr        ....    0.0010
 Zerner damping         CNVZerner       .... off
 Static damping         CNVDamp         .... on
   Fraction old density DampFac         ....    0.7000
   Max. Damping (<1)    DampMax         ....    0.9800
   Min. Damping (>=0)   DampMin         ....    0.0000
   Turn off err/grad.   DampErr         ....    0.1000
 Fernandez-Rico         CNVRico         .... off

SCF Procedure:
 Maximum # iterations   MaxIter         ....   125
 SCF integral mode      SCFMode         .... Direct
   Integral package                     .... LIBINT
 Reset frequency        DirectResetFreq ....    20
 Integral Threshold     Thresh          ....  1.000e-10 Eh
 Primitive CutOff       TCut            ....  1.000e-11 Eh

Convergence Tolerance:
 Convergence Check Mode ConvCheckMode   .... Total+1el-Energy
 Convergence forced     ConvForced      .... 0
 Energy Change          TolE            ....  1.000e-06 Eh
 1-El. energy change                    ....  1.000e-03 Eh
 DIIS Error             TolErr          ....  1.000e-06


Diagonalization of the overlap matrix:
Smallest eigenvalue                        ... 4.724e-05
Time for diagonalization                   ...    0.004 sec
Threshold for overlap eigenvalues          ... 1.000e-08
Number of eigenvalues below threshold      ... 0
Time for construction of square roots      ...    0.002 sec
Total time needed                          ...    0.007 sec

-------------------
DFT GRID GENERATION
-------------------

General Integration Accuracy     IntAcc      ...  4.670
Radial Grid Type                 RadialGrid  ... Gauss-Chebyshev
Angular Grid (max. acc.)         AngularGrid ... Lebedev-302
Angular grid pruning method      GridPruning ... 3 (G Style)
Weight generation scheme         WeightScheme... Becke
Basis function cutoff            BFCut       ...    1.0000e-10
Integration weight cutoff        WCut        ...    1.0000e-14
Grids for H and He will be reduced by one unit

# of grid points (after initial pruning)     ...  16402 (   0.0 sec)
# of grid points (after weights+screening)   ...  16375 (   0.0 sec)
nearest neighbour list constructed           ...    0.0 sec
Grid point re-assignment to atoms done       ...    0.0 sec
Grid point division into batches done        ...    0.1 sec
Reduced shell lists constructed in    0.1 sec

Total number of grid points                  ...    16375
Total number of batches                      ...      257
Average number of points per batch           ...       63
Average number of grid points per atom       ...     8188
Average number of shells per batch           ...    17.83 (43.50%)
Average number of basis functions per batch  ...    49.50 (34.62%)
Average number of large shells per batch     ...    11.08 (62.15%)
Average number of large basis fcns per batch ...    32.25 (65.15%)
Maximum spatial batch extension              ...  24.49, 24.19, 18.13 au
Average spatial batch extension              ...   0.85,  0.83,  0.66 au

Time for grid setup =    0.147 sec

------------------------------
INITIAL GUESS: MODEL POTENTIAL
------------------------------
Loading Hartree-Fock densities                     ... done
Calculating cut-offs                               ... done
Setting up the integral package                    ... done
Initializing the effective Hamiltonian             ... done
Starting the Coulomb interaction                   ... done (   0.0 sec)
Reading the grid                                   ... done
Mapping shells                                     ... done
Starting the XC term evaluation                    ... done (   0.0 sec)
  promolecular density results
     # of electrons  =     39.000003298
     EX              =    -68.216507305
     EC              =     -1.555239871
     EX+EC           =    -69.771747176
Transforming the Hamiltonian                       ... done (   0.0 sec)
Diagonalizing the Hamiltonian                      ... done (   0.0 sec)
Back transforming the eigenvectors                 ... done (   0.0 sec)
Now organizing SCF variables                       ... done
                      ------------------
                      INITIAL GUESS DONE (   0.2 sec)
                      ------------------
--------------
SCF ITERATIONS
--------------
ITER       Energy         Delta-E        Max-DP      RMS-DP      [F,P]     Damp
               ***  Starting incremental Fock matrix formation  ***
  0  -1309.6958655525   0.00000000000072.79026457  0.53217785  0.1074106 0.7000
  1  -1309.5945192995   0.10134625290321.90482287  0.16009842  0.0494280 0.7000
                               ***Turning on DIIS***
  2  -1309.6447483326  -0.05022903305251.11010312  0.37360845  0.0335300 0.0000
  3  -1309.7461468400  -0.101398507356 0.06769802  0.00126880  0.0298040 0.0000
  4  -1309.7507363273  -0.004589487344 1.12130362  0.03078023  0.0101613 0.0000
  5  -1309.3233283198   0.427408007485 0.01810791  0.00040858  0.1238454 0.7000
  6  -1309.3253975770  -0.002069257186 0.01731721  0.00039057  0.1217808 0.7000
  7  -1309.3274278867  -0.002030309699 0.00460197  0.00013927  0.1197822 0.7000
  8  -1309.3284035048  -0.000975618106 0.00947281  0.00029242  0.1187384 0.7000
  9  -1309.3296304003  -0.001226895453 0.32854907  0.00896717  0.1177214 0.7000
 10  -1309.4803738325  -0.150743432238 0.76662563  0.02091494  0.0374281 0.0000
 11  -1309.7265215404  -0.246147707886 0.01471091  0.00033145  0.0934726 0.0000
 12  -1309.7383590676  -0.011837527181 0.00728745  0.00018081  0.0657194 0.0000
 13  -1309.7435129474  -0.005153879832 0.00574280  0.00013552  0.0513829 0.0000
 14  -1309.7463252198  -0.002812272388 0.00410231  0.00010203  0.0423281 0.0000
 15  -1309.7479261240  -0.001600904205 0.01802021  0.00044823  0.0365956 0.0000
 16  -1309.7521292617  -0.004203137733 0.01120108  0.00023476  0.0093209 0.0000
 17  -1309.7524439323  -0.000314670609 0.01153616  0.00010483  0.0042039 0.0000
 18  -1309.7524217908   0.000022141576 0.03898321  0.00081132  0.0033709 0.0000
 19  -1309.7527098059  -0.000288015158 0.01178356  0.00029159  0.0031845 0.0000
               *** Restarting incremental Fock matrix formation ***
                                   *** Resetting DIIS ***
 20  -1309.7525786817   0.000131124256 0.01509196  0.00031079  0.0030409 0.0000
 21  -1309.7524172765   0.000161405206 0.00606203  0.00013351  0.0025972 0.0000
 22  -1309.7523535915   0.000063684956 0.00909806  0.00012912  0.0024587 0.0000
 23  -1309.7523108181   0.000042773364 0.00984262  0.00009110  0.0021730 0.0000
 24  -1309.7522975428   0.000013275284 0.01205184  0.00012310  0.0017920 0.0000
 25  -1309.7522415873   0.000055955539 0.00530082  0.00006870  0.0013561 0.0000
 26  -1309.7522077510   0.000033836312 4.07415401  0.06633645  0.0009708 0.0000
 27  -1309.3149671749   0.437240576081 0.08554995  0.00118839  0.1275567 0.7000
 28  -1309.3151915763  -0.000224401362 0.40083841  0.00425928  0.1275076 0.7000
 29  -1309.3154844791  -0.000292902826 0.39973159  0.00566845  0.1274600 0.7000
 30  -1309.3176061301  -0.002121651025 0.24966054  0.00431960  0.1273732 0.7000
 31  -1309.3171671464   0.000438983684 1.14128663  0.01879172  0.1273519 0.7000
 32  -1309.4714674297  -0.154300283225 2.66387522  0.04386702  0.0407650 0.0000
 33  -1309.7271465674  -0.255679137706 0.01890392  0.00042438  0.0943064 0.0000
 34  -1309.7397722757  -0.012625708324 0.00982045  0.00021807  0.0642732 0.0000
 35  -1309.7453288216  -0.005556545950 0.00738869  0.00016769  0.0478358 0.0000
 36  -1309.7483450697  -0.003016248086 0.00508965  0.00012803  0.0366692 0.0000
 37  -1309.7500664343  -0.001721364587 0.56217450  0.00579702  0.0286585 0.0000
 38  -1309.7534541529  -0.003387718570 0.51395807  0.00479216  0.0067765 0.0000
 39  -1309.7531819364   0.000272216495 0.09155335  0.00109767  0.0031178 0.0000
               *** Restarting incremental Fock matrix formation ***
                                   *** Resetting DIIS ***
 40  -1309.7526690623   0.000512874053 0.01084625  0.00016792  0.0017083 0.0000
 41  -1309.7524661131   0.000202949222 0.00433495  0.00007791  0.0016280 0.0000
 42  -1309.7523504682   0.000115644922 0.01196947  0.00014456  0.0013638 0.0000
 43  -1309.7522894175   0.000061050694 0.00447195  0.00004110  0.0012976 0.0000
 44  -1309.7522413318   0.000048085710 0.00444723  0.00005176  0.0011167 0.0000
 45  -1309.7522065229   0.000034808929 0.02911522  0.00036322  0.0009705 0.0000
 46  -1309.7521986944   0.000007828500 0.01813123  0.00021706  0.0009933 0.0000
 47  -1309.7521337588   0.000064935609 0.00796143  0.00013327  0.0004806 0.0000
 48  -1309.7520782122   0.000055546519 0.00508198  0.00008105  0.0002825 0.0000
 49  -1309.7520450112   0.000033201058 0.00228451  0.00002900  0.0001566 0.0000
                 **** Energy Check signals convergence ****

               *****************************************************
               *                     SUCCESS                       *
               *           SCF CONVERGED AFTER  50 CYCLES          *
               *****************************************************


Setting up the DFT-NL grid :

General Integration Accuracy     IntAcc      ...  4.340
Radial Grid Type                 RadialGrid  ... Gauss-Chebyshev
Angular Grid (max. acc.)         AngularGrid ... Lebedev-110
Angular grid pruning method      GridPruning ... 3 (G Style)
Weight generation scheme         WeightScheme... Becke
Basis function cutoff            BFCut       ...    1.0000e-10
Integration weight cutoff        WCut        ...    1.0000e-14
Grids for H and He will be reduced by one unit

# of grid points (after initial pruning)     ...   4816 (   0.0 sec)
# of grid points (after weights+screening)   ...   4791 (   0.0 sec)
nearest neighbour list constructed           ...    0.0 sec
Grid point re-assignment to atoms done       ...    0.0 sec
Grid point division into batches done        ...    0.0 sec
Reduced shell lists constructed in    0.0 sec

Total number of grid points                  ...     4791
Total number of batches                      ...       76
Average number of points per batch           ...       63
Average number of grid points per atom       ...     2396
Average number of shells per batch           ...    23.60 (57.56%)
Average number of basis functions per batch  ...    79.60 (55.66%)
Average number of large shells per batch     ...    18.80 (79.66%)
Average number of large basis fcns per batch ...    62.00 (77.89%)
Maximum spatial batch extension              ...  20.31, 28.73, 16.39 au
Average spatial batch extension              ...   0.97,  1.26,  0.86 au

Final grid set up in    0.0 sec

-------------------------------------------------------------------------------
                         DFT-NL dispersion correction                          
-------------------------------------------------------------------------------

SC Energy -1309.752044283 
NL    Energy 0.162951323 
SC+NL Energy -1309.589092960 
NL done in    0.0 sec
-------------------------------------------------------------------------------

----------------
TOTAL SCF ENERGY
----------------

Total Energy       :        -1309.58909296 Eh          -35635.73090 eV

Components:
Nuclear Repulsion  :           88.60669087 Eh            2411.11064 eV
Electronic Energy  :        -1398.19578383 Eh          -38046.84154 eV
One Electron Energy:        -1977.78216722 Eh          -53818.18883 eV
Two Electron Energy:          579.58638339 Eh           15771.34729 eV

Virial components:
Potential Energy   :        -2617.01068656 Eh          -71212.48115 eV
Kinetic Energy     :         1307.42159360 Eh           35576.75025 eV
Virial Ratio       :            2.00165784


DFT components:
N(Alpha)           :       20.999995266335 electrons
N(Beta)            :       17.999995991902 electrons
N(Total)           :       38.999991258237 electrons
E(X)               :      -53.065049102015 Eh       
E(C)               :       -1.787534489706 Eh       
NL Energy, E(C,NL) :        0.162951322742 Eh       
E(XC)              :      -54.689632268980 Eh       
DFET-embed. en.    :        0.000000000000 Eh       

---------------
SCF CONVERGENCE
---------------

  Last Energy change         ...    7.2820e-07  Tolerance :   1.0000e-06
  Last MAX-Density change    ...    9.4428e-04  Tolerance :   1.0000e-05
  Last RMS-Density change    ...    1.4654e-05  Tolerance :   1.0000e-06
  Last DIIS Error            ...    3.4528e-04  Tolerance :   1.0000e-06

             **** THE GBW FILE WAS UPDATED (09_TiCl.gbw) ****
             **** DENSITY FILE WAS UPDATED (09_TiCl.scfp) ****
             **** ENERGY FILE WAS UPDATED (09_TiCl.en.tmp) ****
----------------------
UHF SPIN CONTAMINATION
----------------------

Warning: in a DFT calculation there is little theoretical justification to 
         calculate <S**2> as in Hartree-Fock theory. We will do it anyways
         but you should keep in mind that the values have only limited relevance

Expectation value of <S**2>     :     3.754334
Ideal value S*(S+1) for S=1.5   :     3.750000
Deviation                       :     0.004334

             **** THE GBW FILE WAS UPDATED (09_TiCl.gbw) ****
             **** DENSITY FILE WAS UPDATED (09_TiCl.scfp) ****
----------------
ORBITAL ENERGIES
----------------
                 SPIN UP ORBITALS
  NO   OCC          E(Eh)            E(eV) 
   0   1.0000    -179.253219     -4877.7281 
   1   1.0000    -101.844576     -2771.3318 
   2   1.0000     -20.049769      -545.5820 
   3   1.0000     -16.694323      -454.2756 
   4   1.0000     -16.684620      -454.0116 
   5   1.0000     -16.684595      -454.0109 
   6   1.0000      -9.603341      -261.3202 
   7   1.0000      -7.303296      -198.7328 
   8   1.0000      -7.302260      -198.7046 
   9   1.0000      -7.302256      -198.7045 
  10   1.0000      -2.488679       -67.7204 
  11   1.0000      -1.598849       -43.5069 
  12   1.0000      -1.585318       -43.1387 
  13   1.0000      -1.585307       -43.1384 
  14   1.0000      -0.885712       -24.1015 
  15   1.0000      -0.430614       -11.7176 
  16   1.0000      -0.399699       -10.8764 
  17   1.0000      -0.399687       -10.8760 
  18   1.0000      -0.272678        -7.4199 
  19   1.0000      -0.272678        -7.4199 
  20   1.0000      -0.260614        -7.0917 
  21   0.0000      -0.019773        -0.5381 
  22   0.0000      -0.003638        -0.0990 
  23   0.0000      -0.003623        -0.0986 
  24   0.0000       0.014679         0.3994 
  25   0.0000       0.018176         0.4946 
  26   0.0000       0.031603         0.8600 
  27   0.0000       0.031627         0.8606 
  28   0.0000       0.039134         1.0649 
  29   0.0000       0.039135         1.0649 
  30   0.0000       0.040940         1.1140 
  31   0.0000       0.041208         1.1213 
  32   0.0000       0.041216         1.1215 
  33   0.0000       0.060245         1.6394 
  34   0.0000       0.060262         1.6398 
  35   0.0000       0.084177         2.2906 
  36   0.0000       0.109250         2.9728 
  37   0.0000       0.146503         3.9865 
  38   0.0000       0.148402         4.0382 
  39   0.0000       0.148405         4.0383 
  40   0.0000       0.163980         4.4621 
  41   0.0000       0.163991         4.4624 
  42   0.0000       0.168826         4.5940 
  43   0.0000       0.173481         4.7207 
  44   0.0000       0.173482         4.7207 
  45   0.0000       0.188226         5.1219 
  46   0.0000       0.188229         5.1220 
  47   0.0000       0.247998         6.7484 
  48   0.0000       0.272294         7.4095 
  49   0.0000       0.272299         7.4096 
  50   0.0000       0.291420         7.9300 
  51   0.0000       0.291420         7.9300 
  52   0.0000       0.330595         8.9960 
  53   0.0000       0.337332         9.1793 
  54   0.0000       0.337333         9.1793 
  55   0.0000       0.360954         9.8221 
  56   0.0000       0.414890        11.2897 
  57   0.0000       0.414894        11.2898 
  58   0.0000       0.428899        11.6709 
  59   0.0000       0.428906        11.6711 
  60   0.0000       0.447294        12.1715 
  61   0.0000       0.464467        12.6388 
  62   0.0000       0.578658        15.7461 
  63   0.0000       0.578673        15.7465 
  64   0.0000       0.601362        16.3639 
  65   0.0000       0.601365        16.3640 
  66   0.0000       0.627309        17.0699 
  67   0.0000       0.627319        17.0702 
  68   0.0000       0.700190        19.0531 
  69   0.0000       0.776688        21.1348 
  70   0.0000       0.780998        21.2520 
  71   0.0000       0.781004        21.2522 
  72   0.0000       0.847224        23.0541 
  73   0.0000       0.847230        23.0543 
  74   0.0000       0.869915        23.6716 
  75   0.0000       0.872010        23.7286 
  76   0.0000       0.872014        23.7287 
  77   0.0000       0.908898        24.7324 
  78   0.0000       0.920762        25.0552 
  79   0.0000       0.920762        25.0552 
  80   0.0000       0.952872        25.9290 
  81   0.0000       0.952897        25.9296 
  82   0.0000       0.955290        25.9948 
  83   0.0000       0.955308        25.9953 
  84   0.0000       0.980468        26.6799 
  85   0.0000       0.980479        26.6802 
  86   0.0000       0.981607        26.7109 
  87   0.0000       0.981607        26.7109 
  88   0.0000       0.983434        26.7606 
  89   0.0000       1.018022        27.7018 
  90   0.0000       1.018035        27.7021 
  91   0.0000       1.191206        32.4144 
  92   0.0000       1.191206        32.4144 
  93   0.0000       1.281842        34.8807 
  94   0.0000       1.281851        34.8809 
  95   0.0000       1.322504        35.9872 
  96   0.0000       1.438665        39.1481 
  97   0.0000       1.438667        39.1481 
  98   0.0000       1.484662        40.3997 
  99   0.0000       1.681982        45.7691 
 100   0.0000       1.681994        45.7694 
 101   0.0000       1.919918        52.2436 
 102   0.0000       1.975828        53.7650 
 103   0.0000       1.975842        53.7654 
 104   0.0000       1.977780        53.8181 
 105   0.0000       2.218590        60.3709 
 106   0.0000       2.218612        60.3715 
 107   0.0000       2.327651        63.3386 
 108   0.0000       2.338927        63.6454 
 109   0.0000       2.338972        63.6467 
 110   0.0000       2.351043        63.9751 
 111   0.0000       2.351044        63.9751 
 112   0.0000       2.426861        66.0382 
 113   0.0000       2.459510        66.9267 
 114   0.0000       2.459524        66.9270 
 115   0.0000       2.635380        71.7123 
 116   0.0000       2.635389        71.7126 
 117   0.0000       2.663349        72.4734 
 118   0.0000       2.859954        77.8233 
 119   0.0000       2.859954        77.8233 
 120   0.0000       2.936996        79.9197 
 121   0.0000       2.937072        79.9218 
 122   0.0000       2.966709        80.7283 
 123   0.0000       2.992580        81.4323 
 124   0.0000       2.992586        81.4324 
 125   0.0000       3.150263        85.7230 
 126   0.0000       3.325642        90.4953 
 127   0.0000       3.325741        90.4980 
 128   0.0000       3.333563        90.7109 
 129   0.0000       3.333563        90.7109 
 130   0.0000       3.354262        91.2741 
 131   0.0000       3.354290        91.2749 
 132   0.0000       3.436878        93.5222 
 133   0.0000       3.436895        93.5227 
 134   0.0000       3.545227        96.4705 
 135   0.0000       3.545227        96.4705 
 136   0.0000       3.575682        97.2993 
 137   0.0000       3.575718        97.3002 
 138   0.0000       3.701949       100.7351 
 139   0.0000       3.763119       102.3997 
 140   0.0000       3.763151       102.4005 
 141   0.0000       4.258204       115.8716 
 142   0.0000       6.490662       176.6199 

                 SPIN DOWN ORBITALS
  NO   OCC          E(Eh)            E(eV) 
   0   1.0000    -179.252301     -4877.7031 
   1   1.0000    -101.844702     -2771.3352 
   2   1.0000     -20.023756      -544.8741 
   3   1.0000     -16.683958      -453.9936 
   4   1.0000     -16.658009      -453.2875 
   5   1.0000     -16.657964      -453.2862 
   6   1.0000      -9.603451      -261.3232 
   7   1.0000      -7.303574      -198.7403 
   8   1.0000      -7.302408      -198.7086 
   9   1.0000      -7.302407      -198.7086 
  10   1.0000      -2.413930       -65.6864 
  11   1.0000      -1.549968       -42.1768 
  12   1.0000      -1.482088       -40.3297 
  13   1.0000      -1.481995       -40.3271 
  14   1.0000      -0.885171       -24.0867 
  15   1.0000      -0.425691       -11.5836 
  16   1.0000      -0.398926       -10.8553 
  17   1.0000      -0.398911       -10.8549 
  18   0.0000      -0.217394        -5.9156 
  19   0.0000      -0.178641        -4.8611 
  20   0.0000      -0.177754        -4.8369 
  21   0.0000      -0.106874        -2.9082 
  22   0.0000      -0.098204        -2.6723 
  23   0.0000      -0.097914        -2.6644 
  24   0.0000      -0.058155        -1.5825 
  25   0.0000      -0.044626        -1.2143 
  26   0.0000      -0.041237        -1.1221 
  27   0.0000      -0.020253        -0.5511 
  28   0.0000      -0.015361        -0.4180 
  29   0.0000      -0.001666        -0.0453 
  30   0.0000       0.007531         0.2049 
  31   0.0000       0.022807         0.6206 
  32   0.0000       0.025471         0.6931 
  33   0.0000       0.032172         0.8754 
  34   0.0000       0.042217         1.1488 
  35   0.0000       0.051124         1.3912 
  36   0.0000       0.068636         1.8677 
  37   0.0000       0.089337         2.4310 
  38   0.0000       0.093154         2.5348 
  39   0.0000       0.095782         2.6064 
  40   0.0000       0.113414         3.0862 
  41   0.0000       0.114435         3.1139 
  42   0.0000       0.120946         3.2911 
  43   0.0000       0.121018         3.2931 
  44   0.0000       0.122430         3.3315 
  45   0.0000       0.122430         3.3315 
  46   0.0000       0.136944         3.7264 
  47   0.0000       0.140601         3.8259 
  48   0.0000       0.141442         3.8488 
  49   0.0000       0.188561         5.1310 
  50   0.0000       0.190745         5.1904 
  51   0.0000       0.190991         5.1971 
  52   0.0000       0.212255         5.7757 
  53   0.0000       0.212532         5.7833 
  54   0.0000       0.255588         6.9549 
  55   0.0000       0.317291         8.6339 
  56   0.0000       0.380311        10.3488 
  57   0.0000       0.380339        10.3495 
  58   0.0000       0.397485        10.8161 
  59   0.0000       0.418877        11.3982 
  60   0.0000       0.418981        11.4010 
  61   0.0000       0.449008        12.2181 
  62   0.0000       0.541153        14.7255 
  63   0.0000       0.541266        14.7286 
  64   0.0000       0.600493        16.3403 
  65   0.0000       0.600702        16.3459 
  66   0.0000       0.612550        16.6683 
  67   0.0000       0.613297        16.6887 
  68   0.0000       0.677284        18.4298 
  69   0.0000       0.751213        20.4416 
  70   0.0000       0.751219        20.4417 
  71   0.0000       0.761661        20.7258 
  72   0.0000       0.845907        23.0183 
  73   0.0000       0.845911        23.0184 
  74   0.0000       0.863540        23.4981 
  75   0.0000       0.867650        23.6100 
  76   0.0000       0.867672        23.6105 
  77   0.0000       0.896502        24.3951 
  78   0.0000       0.896502        24.3951 
  79   0.0000       0.902370        24.5547 
  80   0.0000       0.902463        24.5573 
  81   0.0000       0.904039        24.6002 
  82   0.0000       0.937420        25.5085 
  83   0.0000       0.937439        25.5090 
  84   0.0000       0.960317        26.1316 
  85   0.0000       0.960340        26.1322 
  86   0.0000       0.961180        26.1550 
  87   0.0000       0.996110        27.1055 
  88   0.0000       0.996110        27.1055 
  89   0.0000       0.998369        27.1670 
  90   0.0000       0.998370        27.1670 
  91   0.0000       1.183250        32.1979 
  92   0.0000       1.183251        32.1979 
  93   0.0000       1.273208        34.6458 
  94   0.0000       1.273216        34.6460 
  95   0.0000       1.315030        35.7838 
  96   0.0000       1.431397        38.9503 
  97   0.0000       1.431423        38.9510 
  98   0.0000       1.484611        40.3983 
  99   0.0000       1.678023        45.6613 
 100   0.0000       1.678028        45.6615 
 101   0.0000       1.917617        52.1810 
 102   0.0000       1.995896        54.3111 
 103   0.0000       2.020691        54.9858 
 104   0.0000       2.020705        54.9862 
 105   0.0000       2.288312        62.2681 
 106   0.0000       2.288344        62.2690 
 107   0.0000       2.348681        63.9109 
 108   0.0000       2.348682        63.9109 
 109   0.0000       2.359635        64.2089 
 110   0.0000       2.359666        64.2098 
 111   0.0000       2.374360        64.6096 
 112   0.0000       2.433315        66.2139 
 113   0.0000       2.458155        66.8898 
 114   0.0000       2.458245        66.8923 
 115   0.0000       2.635958        71.7281 
 116   0.0000       2.635969        71.7284 
 117   0.0000       2.679065        72.9011 
 118   0.0000       2.859049        77.7987 
 119   0.0000       2.859049        77.7987 
 120   0.0000       2.935362        79.8753 
 121   0.0000       2.935436        79.8773 
 122   0.0000       2.968153        80.7675 
 123   0.0000       2.991785        81.4106 
 124   0.0000       2.991795        81.4109 
 125   0.0000       3.167151        86.1825 
 126   0.0000       3.365146        91.5703 
 127   0.0000       3.365146        91.5703 
 128   0.0000       3.376599        91.8819 
 129   0.0000       3.376623        91.8826 
 130   0.0000       3.389214        92.2252 
 131   0.0000       3.389355        92.2290 
 132   0.0000       3.461334        94.1877 
 133   0.0000       3.461357        94.1883 
 134   0.0000       3.631284        98.8123 
 135   0.0000       3.631318        98.8132 
 136   0.0000       3.644468        99.1710 
 137   0.0000       3.644468        99.1710 
 138   0.0000       3.742002       101.8250 
 139   0.0000       3.809565       103.6635 
 140   0.0000       3.809606       103.6646 
 141   0.0000       4.281899       116.5164 
 142   0.0000       6.486007       176.4932 

                    ********************************
                    * MULLIKEN POPULATION ANALYSIS *
                    ********************************

--------------------------------------------
MULLIKEN ATOMIC CHARGES AND SPIN POPULATIONS
--------------------------------------------
   0 Ti:    0.346653    2.955800
   1 Cl:   -0.346653    0.044200
Sum of atomic charges         :   -0.0000000
Sum of atomic spin populations:    3.0000000

-----------------------------------------------------
MULLIKEN REDUCED ORBITAL CHARGES AND SPIN POPULATIONS
-----------------------------------------------------
CHARGE
  0 Tis       :     6.731567  s :     6.731567
      pz      :     4.137969  p :    12.211654
      px      :     4.036811
      py      :     4.036874
      dz2     :     0.545408  d :     2.687119
      dxz     :     0.073164
      dyz     :     0.073149
      dx2y2   :     0.997699
      dxy     :     0.997699
      f0      :     0.005565  f :     0.014799
      f+1     :     0.004333
      f-1     :     0.004332
      f+2     :     0.000285
      f-2     :     0.000285
      f+3     :     0.000000
      f-3     :     0.000000
      g0      :     0.002172  g :     0.008208
      g+1     :     0.003020
      g-1     :     0.003018
      g+2     :    -0.000001
      g-2     :    -0.000001
      g+3     :     0.000000
      g-3     :     0.000000
      g+4     :     0.000000
      g-4     :     0.000000
  1 Cls       :     5.906799  s :     5.906799
      pz      :     3.666740  p :    11.423727
      px      :     3.878519
      py      :     3.878468
      dz2     :     0.002924  d :     0.013928
      dxz     :     0.003858
      dyz     :     0.003859
      dx2y2   :     0.001644
      dxy     :     0.001644
      f0      :     0.000852  f :     0.002200
      f+1     :     0.000306
      f-1     :     0.000306
      f+2     :     0.000368
      f-2     :     0.000368
      f+3     :     0.000000
      f-3     :     0.000000

SPIN
  0 Tis       :     0.527054  s :     0.527054
      pz      :     0.026923  p :     0.010817
      px      :    -0.008017
      py      :    -0.008089
      dz2     :     0.392644  d :     2.404320
      dxz     :     0.008146
      dyz     :     0.008131
      dx2y2   :     0.997699
      dxy     :     0.997699
      f0      :     0.002894  f :     0.012016
      f+1     :     0.004276
      f-1     :     0.004276
      f+2     :     0.000285
      f-2     :     0.000285
      f+3     :    -0.000000
      f-3     :    -0.000000
      g0      :    -0.000097  g :     0.001594
      g+1     :     0.000845
      g-1     :     0.000847
      g+2     :    -0.000001
      g-2     :    -0.000001
      g+3     :     0.000000
      g-3     :     0.000000
      g+4     :     0.000000
      g-4     :     0.000000
  1 Cls       :     0.021464  s :     0.021464
      pz      :     0.025990  p :     0.013005
      px      :    -0.006535
      py      :    -0.006449
      dz2     :     0.002468  d :     0.007712
      dxz     :     0.000980
      dyz     :     0.000976
      dx2y2   :     0.001644
      dxy     :     0.001644
      f0      :     0.000654  f :     0.002019
      f+1     :     0.000314
      f-1     :     0.000314
      f+2     :     0.000368
      f-2     :     0.000368
      f+3     :     0.000000
      f-3     :     0.000000


                     *******************************
                     * LOEWDIN POPULATION ANALYSIS *
                     *******************************

-------------------------------------------
LOEWDIN ATOMIC CHARGES AND SPIN POPULATIONS
-------------------------------------------
   0 Ti:   -0.186080    2.913922
   1 Cl:    0.186080    0.086078

----------------------------------------------------
LOEWDIN REDUCED ORBITAL CHARGES AND SPIN POPULATIONS
----------------------------------------------------
CHARGE
  0 Tis       :     6.536806  s :     6.536806
      pz      :     4.172535  p :    12.240947
      px      :     4.034185
      py      :     4.034227
      dz2     :     0.670612  d :     2.948397
      dxz     :     0.151335
      dyz     :     0.151310
      dx2y2   :     0.987570
      dxy     :     0.987570
      f0      :     0.125546  f :     0.310518
      f+1     :     0.091473
      f-1     :     0.091471
      f+2     :     0.001014
      f-2     :     0.001014
      f+3     :     0.000000
      f-3     :     0.000000
      g0      :     0.044496  g :     0.149412
      g+1     :     0.052329
      g-1     :     0.052329
      g+2     :     0.000128
      g-2     :     0.000128
      g+3     :     0.000000
      g-3     :     0.000000
      g+4     :     0.000000
      g-4     :     0.000000
  1 Cls       :     5.536189  s :     5.536189
      pz      :     3.740306  p :    11.018376
      px      :     3.639046
      py      :     3.639025
      dz2     :     0.123611  d :     0.181390
      dxz     :     0.021940
      dyz     :     0.021940
      dx2y2   :     0.006950
      dxy     :     0.006950
      f0      :     0.049894  f :     0.077965
      f+1     :     0.009703
      f-1     :     0.009702
      f+2     :     0.004333
      f-2     :     0.004333
      f+3     :     0.000000
      f-3     :     0.000000

SPIN
  0 Tis       :     0.523328  s :     0.523328
      pz      :     0.028864  p :     0.014513
      px      :    -0.007150
      py      :    -0.007201
      dz2     :     0.375554  d :     2.365357
      dxz     :     0.007332
      dyz     :     0.007331
      dx2y2   :     0.987570
      dxy     :     0.987570
      f0      :     0.001581  f :     0.010251
      f+1     :     0.003319
      f-1     :     0.003323
      f+2     :     0.001014
      f-2     :     0.001014
      f+3     :    -0.000000
      f-3     :    -0.000000
      g0      :    -0.000232  g :     0.000473
      g+1     :     0.000223
      g-1     :     0.000225
      g+2     :     0.000128
      g-2     :     0.000128
      g+3     :     0.000000
      g-3     :     0.000000
      g+4     :     0.000000
      g-4     :     0.000000
  1 Cls       :     0.020331  s :     0.020331
      pz      :     0.044174  p :     0.036470
      px      :    -0.003874
      py      :    -0.003830
      dz2     :     0.004567  d :     0.018895
      dxz     :     0.000215
      dyz     :     0.000213
      dx2y2   :     0.006950
      dxy     :     0.006950
      f0      :     0.001827  f :     0.010382
      f+1     :    -0.000055
      f-1     :    -0.000055
      f+2     :     0.004333
      f-2     :     0.004333
      f+3     :     0.000000
      f-3     :    -0.000000


                      *****************************
                      * MAYER POPULATION ANALYSIS *
                      *****************************

  NA   - Mulliken gross atomic population
  ZA   - Total nuclear charge
  QA   - Mulliken gross atomic charge
  VA   - Mayer's total valence
  BVA  - Mayer's bonded valence
  FA   - Mayer's free valence

  ATOM       NA         ZA         QA         VA         BVA        FA
  0 Ti    21.6533    22.0000     0.3467     4.1406     1.2352     2.9054
  1 Cl    17.3467    17.0000    -0.3467     1.2369     1.2352     0.0017

  Mayer bond orders larger than 0.100000
B(  0-Ti,  1-Cl) :   1.2352 

-------
TIMINGS
-------

Total SCF time: 0 days 0 hours 13 min 10 sec 

Total time                  ....     790.538 sec
Sum of individual times     ....     790.130 sec  ( 99.9%)

Fock matrix formation       ....     789.455 sec  ( 99.9%)
  XC integration            ....       3.572 sec  (  0.5% of F)
    Basis function eval.    ....       0.383 sec  ( 10.7% of XC)
    Density eval.           ....       0.369 sec  ( 10.3% of XC)
    XC-Functional eval.     ....       0.082 sec  (  2.3% of XC)
    XC-Potential eval.      ....       1.104 sec  ( 30.9% of XC)
Diagonalization             ....       0.274 sec  (  0.0%)
Density matrix formation    ....       0.033 sec  (  0.0%)
Population analysis         ....       0.007 sec  (  0.0%)
Initial guess               ....       0.100 sec  (  0.0%)
Orbital Transformation      ....       0.000 sec  (  0.0%)
Orbital Orthonormalization  ....       0.000 sec  (  0.0%)
DIIS solution               ....       0.098 sec  (  0.0%)
Grid generation             ....       0.163 sec  (  0.0%)

-------------------------   --------------------
FINAL SINGLE POINT ENERGY     -1309.589092960237
-------------------------   --------------------


                            ***************************************
                            *     ORCA property calculations      *
                            ***************************************

                                    ---------------------
                                    Active property flags
                                    ---------------------
   (+) Dipole Moment


------------------------------------------------------------------------------
                       ORCA ELECTRIC PROPERTIES CALCULATION
------------------------------------------------------------------------------

Dipole Moment Calculation                       ... on
Quadrupole Moment Calculation                   ... off
Polarizability Calculation                      ... off
GBWName                                         ... 09_TiCl.gbw
Electron density file                           ... 09_TiCl.scfp
The origin for moment calculation is the CENTER OF MASS  = ( 0.000000,  0.000000  1.574575)

-------------
DIPOLE MOMENT
-------------
                                X             Y             Z
Electronic contribution:      0.00151       0.00042      -3.67887
Nuclear contribution   :      0.00000       0.00000       1.73863
                        -----------------------------------------
Total Dipole Moment    :      0.00151       0.00042      -1.94023
                        -----------------------------------------
Magnitude (a.u.)       :      1.94023
Magnitude (Debye)      :      4.93168



--------------------
Rotational spectrum 
--------------------
 
Rotational constants in cm-1:     0.000000     0.165851     0.165851 
Rotational constants in MHz :     0.000000  4972.077671  4972.077671 

 Dipole components along the rotational axes: 
x,y,z [a.u.] :    -1.940234     0.000417     0.001506 
x,y,z [Debye]:    -4.931683     0.001059     0.003829 

 

Timings for individual modules:

Sum of individual times         ...      794.403 sec (=  13.240 min)
GTO integral calculation        ...        3.365 sec (=   0.056 min)   0.4 %
SCF iterations                  ...      791.038 sec (=  13.184 min)  99.6 %
                             ****ORCA TERMINATED NORMALLY****
TOTAL RUN TIME: 0 days 0 hours 13 minutes 15 seconds 20 msec
