
                                 *****************
                                 * O   R   C   A *
                                 *****************

           --- An Ab Initio, DFT and Semiempirical electronic structure package ---

                  #######################################################
                  #                        -***-                        #
                  #          Department of theory and spectroscopy      #
                  #               Directorship: Frank Neese             #
                  #        Max Planck Institute fuer Kohlenforschung    #
                  #                Kaiser Wilhelm Platz 1               #
                  #                 D-45470 Muelheim/Ruhr               #
                  #                      Germany                        #
                  #                                                     #
                  #                  All rights reserved                #
                  #                        -***-                        #
                  #######################################################


                         Program Version 4.2.0 -  RELEASE  -


 With contributions from (in alphabetic order):
   Daniel Aravena         : Magnetic Suceptibility
   Michael Atanasov       : Ab Initio Ligand Field Theory (pilot matlab implementation)
   Alexander A. Auer      : GIAO ZORA, VPT2
   Ute Becker             : Parallelization
   Giovanni Bistoni       : ED, misc. LED, open-shell LED, HFLED
   Martin Brehm           : Molecular dynamics
   Dmytro Bykov           : SCF Hessian
   Vijay G. Chilkuri      : MRCI spin determinant printing, contributions to CSF-ICE
   Dipayan Datta          : RHF DLPNO-CCSD density
   Achintya Kumar Dutta   : EOM-CC, STEOM-CC
   Dmitry Ganyushin       : Spin-Orbit,Spin-Spin,Magnetic field MRCI
   Miquel Garcia          : C-PCM Hessian, Gaussian charge scheme
   Yang Guo               : DLPNO-NEVPT2, CIM, IAO-localization
   Andreas Hansen         : Spin unrestricted coupled pair/coupled cluster methods
   Benjamin Helmich-Paris : CASSCF linear response (MC-RPA)
   Lee Huntington         : MR-EOM, pCC
   Robert Izsak           : Overlap fitted RIJCOSX, COSX-SCS-MP3, EOM
   Christian Kollmar      : KDIIS, OOCD, Brueckner-CCSD(T), CCSD density
   Simone Kossmann        : Meta GGA functionals, TD-DFT gradient, OOMP2, MP2 Hessian
   Martin Krupicka        : AUTO-CI
   Lucas Lang             : DCDCAS
   Dagmar Lenk            : GEPOL surface, SMD
   Dimitrios Liakos       : Extrapolation schemes; Compound Job, initial MDCI parallelization
   Dimitrios Manganas     : Further ROCIS development; embedding schemes
   Dimitrios Pantazis     : SARC Basis sets
   Taras Petrenko         : DFT Hessian,TD-DFT gradient, ASA, ECA, R-Raman, ABS, FL, XAS/XES, NRVS
   Peter Pinski           : DLPNO-MP2, DLPNO-MP2 Gradient
   Christoph Reimann      : Effective Core Potentials
   Marius Retegan         : Local ZFS, SOC
   Christoph Riplinger    : Optimizer, TS searches, QM/MM, DLPNO-CCSD(T), (RO)-DLPNO pert. Triples
   Tobias Risthaus        : Range-separated hybrids, TD-DFT gradient, RPA, STAB
   Michael Roemelt        : Original ROCIS implementation
   Masaaki Saitow         : Open-shell DLPNO-CCSD energy and density
   Barbara Sandhoefer     : DKH picture change effects
   Avijit Sen             : IP-ROCIS
   Kantharuban Sivalingam : CASSCF convergence, NEVPT2, FIC-MRCI
   Bernardo de Souza      : ESD, SOC TD-DFT
   Georgi Stoychev        : AutoAux, RI-MP2 NMR
   Willem Van den Heuvel  : Paramagnetic NMR
   Boris Wezisla          : Elementary symmetry handling
   Frank Wennmohs         : Technical directorship


 We gratefully acknowledge several colleagues who have allowed us to
 interface, adapt or use parts of their codes:
   Stefan Grimme, W. Hujo, H. Kruse,             : VdW corrections, initial TS optimization,
                  C. Bannwarth                     DFT functionals, gCP, sTDA/sTD-DF
   Ed Valeev, F. Pavosevic, A. Kumar             : LibInt (2-el integral package), F12 methods
   Garnet Chan, S. Sharma, J. Yang, R. Olivares  : DMRG
   Ulf Ekstrom                                   : XCFun DFT Library
   Mihaly Kallay                                 : mrcc  (arbitrary order and MRCC methods)
   Andreas Klamt, Michael Diedenhofen            : otool_cosmo (COSMO solvation model)
   Jiri Pittner, Ondrej Demel                    : Mk-CCSD
   Frank Weinhold                                : gennbo (NPA and NBO analysis)
   Christopher J. Cramer and Donald G. Truhlar   : smd solvation model
   Lars Goerigk                                  : TD-DFT with DH, B97 family of functionals
   V. Asgeirsson, H. Jonsson                     : NEB implementation
   FAccTs GmbH                                   : IRC, NEB, NEB-TS, Multilevel, MM, QM/MM, CI optimization
   S Lehtola, MJT Oliveira, MAL Marques          : LibXC Library


 Your calculation uses the libint2 library for the computation of 2-el integrals
 For citations please refer to: http://libint.valeyev.net

 Your ORCA version has been built with support for libXC version: 4.2.3
 For citations please refer to: https://tddft.org/programs/libxc/

 This ORCA versions uses:
   CBLAS   interface :  Fast vector & matrix operations
   LAPACKE interface :  Fast linear algebra routines
   SCALAPACK package :  Parallel linear algebra routines


Your calculation utilizes the DFT-NL dispersion correction.
Cite in your paper:
Vydrov, O. A.; Van Voorhis, T. J. Chem. Phys. 2010, 133, 244103
Hujo, W.; Grimme, S. J. Chem. Theory Comput. 2011, 7, 3866 
   

----- Orbital basis set information -----
Your calculation utilizes the basis: aug-cc-pVTZ 
    H, B-Ne : Obtained from the ccRepo (grant-hill.group.shef.ac.uk/ccrepo) Feb. 2017
              R. A. Kendall, T. H. Dunning, Jr., R. J. Harrison, J. Chem. Phys. 96, 6796 (1992)
         He : Obtained from the ccRepo (grant-hill.group.shef.ac.uk/ccrepo) Feb. 2017
              D. E. Woon, T. H. Dunning, Jr., J. Chem. Phys. 100, 2975 (1994)
  Li-Be, Na : Obtained from the ccRepo (grant-hill.group.shef.ac.uk/ccrepo) Feb. 2017
              B. P. Prascher, D. E. Woon, K. A. Peterson, T. H. Dunning, Jr., A. K. Wilson, Theor. Chem. Acc. 128, 69 (2011)
         Mg : Obtained from the Peterson Research Group Website (tyr0.chem.wsu.edu/~kipeters) Feb. 2017
              B. P. Prascher, D. E. Woon, K. A. Peterson, T. H. Dunning, Jr., A. K. Wilson, Theor. Chem. Acc. 128, 69 (2011)
      Al-Ar : Obtained from the ccRepo (grant-hill.group.shef.ac.uk/ccrepo) Feb. 2017
              D. E. Woon, T. H. Dunning, Jr., J. Chem. Phys. 98, 1358 (1993)
      Sc-Zn : Obtained from the ccRepo (grant-hill.group.shef.ac.uk/ccrepo) Feb. 2017
              N. B. Balabanov, K. A. Peterson, J. Chem. Phys. 123, 064107 (2005)
              N. B. Balabanov, K. A. Peterson, J. Chem. Phys. 125, 074110 (2006)
      Ga-Kr : Obtained from the ccRepo (grant-hill.group.shef.ac.uk/ccrepo) Feb. 2017
              A. K. Wilson, D. E. Woon, K. A. Peterson, T. H. Dunning, Jr., J. Chem. Phys. 110, 7667 (1999)
     Ag, Au : Obtained from the Peterson Research Group Website (tyr0.chem.wsu.edu/~kipeters) Feb. 2017
              K. A. Peterson, C. Puzzarini, Theor. Chem. Acc. 114, 283 (2005)

----- AuxJK basis set information -----
Your calculation utilizes the auxiliary basis: def2/JK
   H-Ba, Hf-Rn: F. Weigend, J. Comput. Chem. 29, 167 (2008).

================================================================================
                                        WARNINGS
                       Please study these warnings very carefully!
================================================================================


WARNING: your system is open-shell and RHF/RKS was chosen
  ===> : WILL SWITCH to UHF/UKS


INFO   : the flag for use of LIBINT has been found!

================================================================================
                                       INPUT FILE
================================================================================
NAME = 13_VH.in
|  1> #
|  2> # 13_VH wb97m-v/aug-cc-pvtz
|  3> #
|  4> ! wb97m-v aug-cc-pvtz def2/jk grid4 nofinalgrid
|  5> 
|  6> *xyz 0 5
|  7>   V   0.00000000000000      0.00000000000000      0.15541431667182
|  8>   H   0.00000000000000      0.00000000000000      1.84458568332818
|  9> *
| 10> 
| 11> %pal
| 12> nprocs 24
| 13> end
| 14> 
| 15> 
| 16>                          ****END OF INPUT****
================================================================================

                       ****************************
                       * Single Point Calculation *
                       ****************************

---------------------------------
CARTESIAN COORDINATES (ANGSTROEM)
---------------------------------
  V      0.000000    0.000000    0.155414
  H      0.000000    0.000000    1.844586

----------------------------
CARTESIAN COORDINATES (A.U.)
----------------------------
  NO LB      ZA    FRAG     MASS         X           Y           Z
   0 V    23.0000    0    50.940    0.000000    0.000000    0.293690
   1 H     1.0000    0     1.008    0.000000    0.000000    3.485762

--------------------------------
INTERNAL COORDINATES (ANGSTROEM)
--------------------------------
 V      0   0   0     0.000000000000     0.00000000     0.00000000
 H      1   0   0     1.689171366656     0.00000000     0.00000000

---------------------------
INTERNAL COORDINATES (A.U.)
---------------------------
 V      0   0   0     0.000000000000     0.00000000     0.00000000
 H      1   0   0     3.192071276242     0.00000000     0.00000000

---------------------
BASIS SET INFORMATION
---------------------
There are 2 groups of distinct atoms

 Group   1 Type V   : 116s77p23d3f2g contracted to 8s7p5d3f2g pattern {19191919191911/151515151511/77711/111/11}
 Group   2 Type H   : 6s3p2d contracted to 4s3p2d pattern {3111/111/11}

Atom   0V    basis set group =>   1
Atom   1H    basis set group =>   2
----------------------------------
AUXILIARY/JK BASIS SET INFORMATION
----------------------------------
There are 2 groups of distinct atoms

 Group   1 Type V   : 19s14p12d10f7g3h1i contracted to 16s13p11d9f5g3h1i pattern {4111111111111111/2111111111111/21111111111/211111111/31111/111/1}
 Group   2 Type H   : 4s2p2d contracted to 2s2p2d pattern {31/11/11}

Atom   0V    basis set group =>   1
Atom   1H    basis set group =>   2


           ************************************************************
           *        Program running with 24 parallel MPI-processes    *
           *              working on a common directory               *
           ************************************************************
------------------------------------------------------------------------------
                           ORCA GTO INTEGRAL CALCULATION
------------------------------------------------------------------------------

                         BASIS SET STATISTICS AND STARTUP INFO

 # of primitive gaussian shells          ...  232
 # of primitive gaussian functions       ...  526
 # of contracted shells                  ...   34
 # of contracted basis functions         ...  116
 Highest angular momentum                ...    4
 Maximum contraction depth               ...   19
 Integral package used                   ... LIBINT
 Integral threshhold            Thresh   ...  1.000e-10
 Primitive cut-off              TCut     ...  1.000e-11


------------------------------ INTEGRAL EVALUATION ----------------------------


 * One electron integrals 
 Pre-screening matrix                    ... done
 Shell pair data                         ... done (   0.001 sec)



           ************************************************************
           *        Program running with 24 parallel MPI-processes    *
           *              working on a common directory               *
           ************************************************************
-------------------------------------------------------------------------------
                                 ORCA SCF
-------------------------------------------------------------------------------

------------
SCF SETTINGS
------------
Hamiltonian:
 Density Functional     Method          .... DFT(GTOs)
 Exchange Functional    Exchange        .... WB97M-V
 Correlation Functional Correlation     .... WB97M-V
 Gradients option       PostSCFGGA      .... off
 Hybrid DFT is turned on
   Fraction HF Exchange ScalHFX         ....  0.150000
   Scaling of DF-GGA-X  ScalDFX         ....  0.000000
   Scaling of DF-GGA-C  ScalDFC         ....  1.000000
   Scaling of DF-LDA-C  ScalLDAC        ....  1.000000
   Perturbative correction              ....  0.000000
   Density functional embedding theory  .... OFF
 Long-range corrected/Screened/Range-Separated Hybrid DFT is turned on
   Amount of maximum screened exact exchange              ....  0.850000
   Range separation parameter mu (erf(mu*r12)/r12)        ....  0.300000
   NL short-range parameter             ....  6.000000
   NL long-range parameter              ....  0.010000


General Settings:
 Integral files         IntName         .... 13_VH
 Hartree-Fock type      HFTyp           .... UHF
 Total Charge           Charge          ....    0
 Multiplicity           Mult            ....    5
 Number of Electrons    NEL             ....   24
 Basis Dimension        Dim             ....  116
 Nuclear Repulsion      ENuc            ....      7.2053528915 Eh

Convergence Acceleration:
 DIIS                   CNVDIIS         .... on
   Start iteration      DIISMaxIt       ....    12
   Startup error        DIISStart       ....  0.200000
   # of expansion vecs  DIISMaxEq       ....     5
   Bias factor          DIISBfac        ....   1.050
   Max. coefficient     DIISMaxC        ....  10.000
 Newton-Raphson         CNVNR           .... off
 SOSCF                  CNVSOSCF        .... off
 Level Shifting         CNVShift        .... on
   Level shift para.    LevelShift      ....    0.2500
   Turn off err/grad.   ShiftErr        ....    0.0010
 Zerner damping         CNVZerner       .... off
 Static damping         CNVDamp         .... on
   Fraction old density DampFac         ....    0.7000
   Max. Damping (<1)    DampMax         ....    0.9800
   Min. Damping (>=0)   DampMin         ....    0.0000
   Turn off err/grad.   DampErr         ....    0.1000
 Fernandez-Rico         CNVRico         .... off

SCF Procedure:
 Maximum # iterations   MaxIter         ....   125
 SCF integral mode      SCFMode         .... Direct
   Integral package                     .... LIBINT
 Reset frequency        DirectResetFreq ....    20
 Integral Threshold     Thresh          ....  1.000e-10 Eh
 Primitive CutOff       TCut            ....  1.000e-11 Eh

Convergence Tolerance:
 Convergence Check Mode ConvCheckMode   .... Total+1el-Energy
 Convergence forced     ConvForced      .... 0
 Energy Change          TolE            ....  1.000e-06 Eh
 1-El. energy change                    ....  1.000e-03 Eh
 DIIS Error             TolErr          ....  1.000e-06


Diagonalization of the overlap matrix:
Smallest eigenvalue                        ... 6.604e-05
Time for diagonalization                   ...    0.004 sec
Threshold for overlap eigenvalues          ... 1.000e-08
Number of eigenvalues below threshold      ... 0
Time for construction of square roots      ...    0.002 sec
Total time needed                          ...    0.006 sec

-------------------
DFT GRID GENERATION
-------------------

General Integration Accuracy     IntAcc      ...  4.670
Radial Grid Type                 RadialGrid  ... Gauss-Chebyshev
Angular Grid (max. acc.)         AngularGrid ... Lebedev-302
Angular grid pruning method      GridPruning ... 3 (G Style)
Weight generation scheme         WeightScheme... Becke
Basis function cutoff            BFCut       ...    1.0000e-10
Integration weight cutoff        WCut        ...    1.0000e-14
Grids for H and He will be reduced by one unit

# of grid points (after initial pruning)     ...  13058 (   0.0 sec)
# of grid points (after weights+screening)   ...  13022 (   0.0 sec)
nearest neighbour list constructed           ...    0.0 sec
Grid point re-assignment to atoms done       ...    0.0 sec
Grid point division into batches done        ...    0.1 sec
Reduced shell lists constructed in    0.1 sec

Total number of grid points                  ...    13022
Total number of batches                      ...      205
Average number of points per batch           ...       63
Average number of grid points per atom       ...     6511
Average number of shells per batch           ...    17.00 (50.00%)
Average number of basis functions per batch  ...    41.20 (35.52%)
Average number of large shells per batch     ...    11.50 (67.65%)
Average number of large basis fcns per batch ...    29.50 (71.60%)
Maximum spatial batch extension              ...  31.41, 28.57, 18.88 au
Average spatial batch extension              ...   1.01,  0.93,  0.72 au

Time for grid setup =    0.130 sec

------------------------------
INITIAL GUESS: MODEL POTENTIAL
------------------------------
Loading Hartree-Fock densities                     ... done
Calculating cut-offs                               ... done
Setting up the integral package                    ... done
Initializing the effective Hamiltonian             ... done
Starting the Coulomb interaction                   ... done (   0.0 sec)
Reading the grid                                   ... done
Mapping shells                                     ... done
Starting the XC term evaluation                    ... done (   0.0 sec)
  promolecular density results
     # of electrons  =     23.999512250
     EX              =    -44.213319435
     EC              =     -0.971796014
     EX+EC           =    -45.185115449
Transforming the Hamiltonian                       ... done (   0.0 sec)
Diagonalizing the Hamiltonian                      ... done (   0.0 sec)
Back transforming the eigenvectors                 ... done (   0.0 sec)
Now organizing SCF variables                       ... done
                      ------------------
                      INITIAL GUESS DONE (   0.2 sec)
                      ------------------
--------------
SCF ITERATIONS
--------------
ITER       Energy         Delta-E        Max-DP      RMS-DP      [F,P]     Damp
               ***  Starting incremental Fock matrix formation  ***
  0   -944.4243700669   0.000000000000 0.18273747  0.00359226  0.1839243 0.7000
  1   -944.4624638478  -0.038093780910 0.06828477  0.00156244  0.0961282 0.7000
                               ***Turning on DIIS***
  2   -944.4807995244  -0.018335676625 0.07959453  0.00201636  0.0659772 0.0000
  3   -944.5162169215  -0.035417397017 0.10907905  0.00243874  0.0506630 0.0000
  4   -944.5222458436  -0.006028922165 0.05032372  0.00114844  0.0231946 0.0000
  5   -944.5233807747  -0.001134931095 0.00931729  0.00021989  0.0144437 0.0000
  6   -944.5240308212  -0.000650046477 0.00602909  0.00016983  0.0082024 0.0000
  7   -944.5243089554  -0.000278134250 0.00696003  0.00010232  0.0034144 0.0000
  8   -944.5244001992  -0.000091243761 0.00553965  0.00006751  0.0014304 0.0000
  9   -944.5244320644  -0.000031865181 0.00368240  0.00004912  0.0010433 0.0000
 10   -944.5244432485  -0.000011184133 0.00408928  0.00005471  0.0007389 0.0000
 11   -944.5244382041   0.000005044433 0.00105551  0.00002338  0.0003184 0.0000
 12   -944.5244257465   0.000012457539 0.00079756  0.00001746  0.0001453 0.0000
 13   -944.5244188859   0.000006860629 0.00016146  0.00000396  0.0000596 0.0000
 14   -944.5244170818   0.000001804135 0.00007974  0.00000158  0.0000126 0.0000
                 **** Energy Check signals convergence ****

               *****************************************************
               *                     SUCCESS                       *
               *           SCF CONVERGED AFTER  15 CYCLES          *
               *****************************************************


Setting up the DFT-NL grid :

General Integration Accuracy     IntAcc      ...  4.340
Radial Grid Type                 RadialGrid  ... Gauss-Chebyshev
Angular Grid (max. acc.)         AngularGrid ... Lebedev-110
Angular grid pruning method      GridPruning ... 3 (G Style)
Weight generation scheme         WeightScheme... Becke
Basis function cutoff            BFCut       ...    1.0000e-10
Integration weight cutoff        WCut        ...    1.0000e-14
Grids for H and He will be reduced by one unit

# of grid points (after initial pruning)     ...   3766 (   0.0 sec)
# of grid points (after weights+screening)   ...   3742 (   0.0 sec)
nearest neighbour list constructed           ...    0.0 sec
Grid point re-assignment to atoms done       ...    0.0 sec
Grid point division into batches done        ...    0.0 sec
Reduced shell lists constructed in    0.0 sec

Total number of grid points                  ...     3742
Total number of batches                      ...       59
Average number of points per batch           ...       63
Average number of grid points per atom       ...     1871
Average number of shells per batch           ...    21.75 (63.97%)
Average number of basis functions per batch  ...    68.25 (58.84%)
Average number of large shells per batch     ...    17.25 (79.31%)
Average number of large basis fcns per batch ...    56.25 (82.42%)
Maximum spatial batch extension              ...  37.20, 28.73, 20.18 au
Average spatial batch extension              ...   1.30,  1.31,  0.88 au

Final grid set up in    0.0 sec

-------------------------------------------------------------------------------
                         DFT-NL dispersion correction                          
-------------------------------------------------------------------------------

SC Energy -944.524417003 
NL    Energy 0.101507016 
SC+NL Energy -944.422909987 
NL done in    0.0 sec
-------------------------------------------------------------------------------

----------------
TOTAL SCF ENERGY
----------------

Total Energy       :         -944.42290999 Eh          -25699.05390 eV

Components:
Nuclear Repulsion  :            7.20535289 Eh             196.06762 eV
Electronic Energy  :         -951.62826288 Eh          -25895.12152 eV
One Electron Energy:        -1313.17952121 Eh          -35733.43142 eV
Two Electron Energy:          361.55125833 Eh            9838.30991 eV

Virial components:
Potential Energy   :        -1887.62153523 Eh          -51364.79331 eV
Kinetic Energy     :          943.19862525 Eh           25665.73941 eV
Virial Ratio       :            2.00129801


DFT components:
N(Alpha)           :       14.000000240008 electrons
N(Beta)            :        9.999999742747 electrons
N(Total)           :       23.999999982755 electrons
E(X)               :      -34.717144999198 Eh       
E(C)               :       -1.116657249900 Eh       
NL Energy, E(C,NL) :        0.101507015987 Eh       
E(XC)              :      -35.732295233111 Eh       
DFET-embed. en.    :        0.000000000000 Eh       

---------------
SCF CONVERGENCE
---------------

  Last Energy change         ...    7.8335e-08  Tolerance :   1.0000e-06
  Last MAX-Density change    ...    2.6618e-05  Tolerance :   1.0000e-05
  Last RMS-Density change    ...    5.8856e-07  Tolerance :   1.0000e-06
  Last DIIS Error            ...    4.4328e-06  Tolerance :   1.0000e-06

             **** THE GBW FILE WAS UPDATED (13_VH.gbw) ****
             **** DENSITY FILE WAS UPDATED (13_VH.scfp) ****
             **** ENERGY FILE WAS UPDATED (13_VH.en.tmp) ****
----------------------
UHF SPIN CONTAMINATION
----------------------

Warning: in a DFT calculation there is little theoretical justification to 
         calculate <S**2> as in Hartree-Fock theory. We will do it anyways
         but you should keep in mind that the values have only limited relevance

Expectation value of <S**2>     :     6.018645
Ideal value S*(S+1) for S=2.0   :     6.000000
Deviation                       :     0.018645

             **** THE GBW FILE WAS UPDATED (13_VH.gbw) ****
             **** DENSITY FILE WAS UPDATED (13_VH.scfp) ****
----------------
ORBITAL ENERGIES
----------------
                 SPIN UP ORBITALS
  NO   OCC          E(Eh)            E(eV) 
   0   1.0000    -197.179967     -5365.5397 
   1   1.0000     -22.317672      -607.2947 
   2   1.0000     -18.746264      -510.1118 
   3   1.0000     -18.736775      -509.8536 
   4   1.0000     -18.736775      -509.8536 
   5   1.0000      -2.678044       -72.8733 
   6   1.0000      -1.703916       -46.3659 
   7   1.0000      -1.702652       -46.3315 
   8   1.0000      -1.702652       -46.3315 
   9   1.0000      -0.338411        -9.2086 
  10   1.0000      -0.252733        -6.8772 
  11   1.0000      -0.252733        -6.8772 
  12   1.0000      -0.233179        -6.3451 
  13   1.0000      -0.233179        -6.3451 
  14   0.0000      -0.027995        -0.7618 
  15   0.0000       0.006095         0.1658 
  16   0.0000       0.006095         0.1658 
  17   0.0000       0.015837         0.4309 
  18   0.0000       0.022191         0.6038 
  19   0.0000       0.042422         1.1544 
  20   0.0000       0.053323         1.4510 
  21   0.0000       0.053323         1.4510 
  22   0.0000       0.054451         1.4817 
  23   0.0000       0.054451         1.4817 
  24   0.0000       0.058936         1.6037 
  25   0.0000       0.058936         1.6037 
  26   0.0000       0.072901         1.9837 
  27   0.0000       0.098842         2.6896 
  28   0.0000       0.137265         3.7352 
  29   0.0000       0.182110         4.9555 
  30   0.0000       0.200735         5.4623 
  31   0.0000       0.200735         5.4623 
  32   0.0000       0.225963         6.1488 
  33   0.0000       0.234661         6.3855 
  34   0.0000       0.234661         6.3855 
  35   0.0000       0.238527         6.4907 
  36   0.0000       0.238528         6.4907 
  37   0.0000       0.323938         8.8148 
  38   0.0000       0.324137         8.8202 
  39   0.0000       0.324137         8.8202 
  40   0.0000       0.435757        11.8576 
  41   0.0000       0.461132        12.5481 
  42   0.0000       0.461132        12.5481 
  43   0.0000       0.461742        12.5646 
  44   0.0000       0.461743        12.5647 
  45   0.0000       0.493727        13.4350 
  46   0.0000       0.553493        15.0613 
  47   0.0000       0.553493        15.0613 
  48   0.0000       0.586094        15.9484 
  49   0.0000       0.682327        18.5671 
  50   0.0000       0.682327        18.5671 
  51   0.0000       0.696236        18.9456 
  52   0.0000       0.806196        21.9377 
  53   0.0000       0.806196        21.9377 
  54   0.0000       0.815945        22.2030 
  55   0.0000       0.815946        22.2030 
  56   0.0000       0.833274        22.6745 
  57   0.0000       0.956950        26.0399 
  58   0.0000       0.956952        26.0400 
  59   0.0000       1.023720        27.8568 
  60   0.0000       1.023720        27.8568 
  61   0.0000       1.042774        28.3753 
  62   0.0000       1.253094        34.0984 
  63   0.0000       1.264605        34.4117 
  64   0.0000       1.264605        34.4117 
  65   0.0000       1.472082        40.0574 
  66   0.0000       1.472082        40.0574 
  67   0.0000       1.483078        40.3566 
  68   0.0000       1.483078        40.3566 
  69   0.0000       1.525466        41.5101 
  70   0.0000       1.670192        45.4482 
  71   0.0000       1.670192        45.4482 
  72   0.0000       1.726738        46.9869 
  73   0.0000       1.726738        46.9869 
  74   0.0000       1.734171        47.1892 
  75   0.0000       1.734177        47.1893 
  76   0.0000       1.844983        50.2045 
  77   0.0000       1.870922        50.9104 
  78   0.0000       1.870924        50.9104 
  79   0.0000       2.142806        58.3087 
  80   0.0000       2.142806        58.3087 
  81   0.0000       2.297659        62.5225 
  82   0.0000       2.355482        64.0959 
  83   0.0000       2.355482        64.0959 
  84   0.0000       2.361038        64.2471 
  85   0.0000       2.596995        70.6678 
  86   0.0000       2.964701        80.6736 
  87   0.0000       2.964705        80.6737 
  88   0.0000       2.997921        81.5776 
  89   0.0000       2.997921        81.5776 
  90   0.0000       3.052490        83.0625 
  91   0.0000       3.253799        88.5404 
  92   0.0000       3.758099       102.2631 
  93   0.0000       3.758203       102.2659 
  94   0.0000       3.976609       108.2090 
  95   0.0000       3.976609       108.2090 
  96   0.0000       4.148341       112.8821 
  97   0.0000       4.148341       112.8821 
  98   0.0000       4.346713       118.2801 
  99   0.0000       4.858257       132.1999 
 100   0.0000       5.031148       136.9045 
 101   0.0000       5.031153       136.9046 
 102   0.0000       5.042402       137.2107 
 103   0.0000       5.042402       137.2107 
 104   0.0000       5.212221       141.8317 
 105   0.0000       5.212221       141.8317 
 106   0.0000       5.320347       144.7740 
 107   0.0000       5.320347       144.7740 
 108   0.0000       5.327812       144.9771 
 109   0.0000       5.327892       144.9793 
 110   0.0000       5.381173       146.4292 
 111   0.0000       5.381185       146.4295 
 112   0.0000       5.486456       149.2941 
 113   0.0000       5.486456       149.2941 
 114   0.0000       5.588962       152.0834 
 115   0.0000       5.715884       155.5371 

                 SPIN DOWN ORBITALS
  NO   OCC          E(Eh)            E(eV) 
   0   1.0000    -197.179715     -5365.5328 
   1   1.0000     -22.268391      -605.9537 
   2   1.0000     -18.713626      -509.2236 
   3   1.0000     -18.693551      -508.6774 
   4   1.0000     -18.693551      -508.6774 
   5   1.0000      -2.551041       -69.4174 
   6   1.0000      -1.584197       -43.1082 
   7   1.0000      -1.544960       -42.0405 
   8   1.0000      -1.544960       -42.0405 
   9   1.0000      -0.317530        -8.6404 
  10   0.0000      -0.070376        -1.9150 
  11   0.0000      -0.035666        -0.9705 
  12   0.0000      -0.035666        -0.9705 
  13   0.0000      -0.002867        -0.0780 
  14   0.0000       0.005124         0.1394 
  15   0.0000       0.020032         0.5451 
  16   0.0000       0.020078         0.5464 
  17   0.0000       0.028025         0.7626 
  18   0.0000       0.028025         0.7626 
  19   0.0000       0.031793         0.8651 
  20   0.0000       0.041148         1.1197 
  21   0.0000       0.041148         1.1197 
  22   0.0000       0.073169         1.9910 
  23   0.0000       0.086541         2.3549 
  24   0.0000       0.114285         3.1099 
  25   0.0000       0.117691         3.2025 
  26   0.0000       0.117691         3.2025 
  27   0.0000       0.119187         3.2432 
  28   0.0000       0.119210         3.2439 
  29   0.0000       0.170481         4.6390 
  30   0.0000       0.170481         4.6390 
  31   0.0000       0.176721         4.8088 
  32   0.0000       0.223911         6.0929 
  33   0.0000       0.244972         6.6660 
  34   0.0000       0.244972         6.6660 
  35   0.0000       0.262134         7.1330 
  36   0.0000       0.262144         7.1333 
  37   0.0000       0.311696         8.4817 
  38   0.0000       0.321298         8.7430 
  39   0.0000       0.321298         8.7430 
  40   0.0000       0.393944        10.7198 
  41   0.0000       0.393944        10.7198 
  42   0.0000       0.407012        11.0753 
  43   0.0000       0.407013        11.0754 
  44   0.0000       0.424327        11.5465 
  45   0.0000       0.481038        13.0897 
  46   0.0000       0.494697        13.4614 
  47   0.0000       0.494697        13.4614 
  48   0.0000       0.548620        14.9287 
  49   0.0000       0.664052        18.0698 
  50   0.0000       0.664052        18.0698 
  51   0.0000       0.691718        18.8226 
  52   0.0000       0.822106        22.3706 
  53   0.0000       0.822120        22.3710 
  54   0.0000       0.823563        22.4103 
  55   0.0000       0.836590        22.7648 
  56   0.0000       0.836590        22.7648 
  57   0.0000       0.943235        25.6667 
  58   0.0000       0.943240        25.6669 
  59   0.0000       1.017951        27.6998 
  60   0.0000       1.017951        27.6998 
  61   0.0000       1.039957        28.2987 
  62   0.0000       1.248371        33.9699 
  63   0.0000       1.258026        34.2326 
  64   0.0000       1.258026        34.2326 
  65   0.0000       1.507392        41.0182 
  66   0.0000       1.507392        41.0182 
  67   0.0000       1.516321        41.2612 
  68   0.0000       1.516343        41.2618 
  69   0.0000       1.524752        41.4906 
  70   0.0000       1.673753        45.5451 
  71   0.0000       1.673753        45.5451 
  72   0.0000       1.685882        45.8752 
  73   0.0000       1.685910        45.8759 
  74   0.0000       1.706045        46.4239 
  75   0.0000       1.706045        46.4239 
  76   0.0000       1.833173        49.8832 
  77   0.0000       1.856699        50.5233 
  78   0.0000       1.856707        50.5236 
  79   0.0000       2.149382        58.4876 
  80   0.0000       2.149382        58.4876 
  81   0.0000       2.351248        63.9807 
  82   0.0000       2.379739        64.7560 
  83   0.0000       2.412598        65.6501 
  84   0.0000       2.412598        65.6501 
  85   0.0000       2.658911        72.3526 
  86   0.0000       3.056748        83.1784 
  87   0.0000       3.064173        83.3804 
  88   0.0000       3.064184        83.3807 
  89   0.0000       3.100212        84.3611 
  90   0.0000       3.100212        84.3611 
  91   0.0000       3.287100        89.4465 
  92   0.0000       3.759046       102.2889 
  93   0.0000       3.759128       102.2911 
  94   0.0000       3.981717       108.3480 
  95   0.0000       3.981717       108.3480 
  96   0.0000       4.153749       113.0293 
  97   0.0000       4.153749       113.0293 
  98   0.0000       4.360512       118.6556 
  99   0.0000       4.884631       132.9176 
 100   0.0000       5.167736       140.6212 
 101   0.0000       5.167747       140.6215 
 102   0.0000       5.171799       140.7318 
 103   0.0000       5.171799       140.7318 
 104   0.0000       5.308188       144.4431 
 105   0.0000       5.308188       144.4431 
 106   0.0000       5.423207       147.5730 
 107   0.0000       5.423251       147.5742 
 108   0.0000       5.429192       147.7358 
 109   0.0000       5.429192       147.7358 
 110   0.0000       5.475319       148.9910 
 111   0.0000       5.475356       148.9920 
 112   0.0000       5.561963       151.3487 
 113   0.0000       5.561963       151.3487 
 114   0.0000       5.656208       153.9132 
 115   0.0000       5.755736       156.6215 

                    ********************************
                    * MULLIKEN POPULATION ANALYSIS *
                    ********************************

--------------------------------------------
MULLIKEN ATOMIC CHARGES AND SPIN POPULATIONS
--------------------------------------------
   0 V :    0.250557    4.066859
   1 H :   -0.250557   -0.066859
Sum of atomic charges         :   -0.0000000
Sum of atomic spin populations:    4.0000000

-----------------------------------------------------
MULLIKEN REDUCED ORBITAL CHARGES AND SPIN POPULATIONS
-----------------------------------------------------
CHARGE
  0 V s       :     6.437840  s :     6.437840
      pz      :     4.106692  p :    12.118980
      px      :     4.006144
      py      :     4.006144
      dz2     :     0.192795  d :     4.180580
      dxz     :     0.994516
      dyz     :     0.994516
      dx2y2   :     0.999376
      dxy     :     0.999376
      f0      :     0.009872  f :     0.011061
      f+1     :     0.000167
      f-1     :     0.000167
      f+2     :     0.000428
      f-2     :     0.000428
      f+3     :     0.000000
      f-3     :     0.000000
      g0      :     0.000937  g :     0.000981
      g+1     :     0.000005
      g-1     :     0.000005
      g+2     :     0.000017
      g-2     :     0.000017
      g+3     :     0.000000
      g-3     :     0.000000
      g+4     :     0.000000
      g-4     :     0.000000
  1 H s       :     1.248186  s :     1.248186
      pz      :     0.002475  p :     0.003108
      px      :     0.000317
      py      :     0.000317
      dz2     :     0.001204  d :    -0.000737
      dxz     :    -0.001149
      dyz     :    -0.001149
      dx2y2   :     0.000179
      dxy     :     0.000179

SPIN
  0 V s       :    -0.028661  s :    -0.028661
      pz      :     0.038005  p :     0.049366
      px      :     0.005681
      py      :     0.005681
      dz2     :     0.058632  d :     4.046140
      dxz     :     0.994377
      dyz     :     0.994377
      dx2y2   :     0.999376
      dxy     :     0.999376
      f0      :    -0.000880  f :     0.000285
      f+1     :     0.000155
      f-1     :     0.000155
      f+2     :     0.000428
      f-2     :     0.000428
      f+3     :    -0.000000
      f-3     :    -0.000000
      g0      :    -0.000316  g :    -0.000271
      g+1     :     0.000005
      g-1     :     0.000005
      g+2     :     0.000017
      g-2     :     0.000017
      g+3     :    -0.000000
      g-3     :    -0.000000
      g+4     :    -0.000000
      g-4     :    -0.000000
  1 H s       :    -0.066424  s :    -0.066424
      pz      :    -0.000405  p :     0.000323
      px      :     0.000364
      py      :     0.000364
      dz2     :     0.000048  d :    -0.000759
      dxz     :    -0.000582
      dyz     :    -0.000582
      dx2y2   :     0.000179
      dxy     :     0.000179


                     *******************************
                     * LOEWDIN POPULATION ANALYSIS *
                     *******************************

-------------------------------------------
LOEWDIN ATOMIC CHARGES AND SPIN POPULATIONS
-------------------------------------------
   0 V :    0.671459    3.850758
   1 H :   -0.671459    0.149242

----------------------------------------------------
LOEWDIN REDUCED ORBITAL CHARGES AND SPIN POPULATIONS
----------------------------------------------------
CHARGE
  0 V s       :     6.262609  s :     6.262609
      pz      :     4.068015  p :    11.978354
      px      :     3.955170
      py      :     3.955170
      dz2     :     0.225646  d :     4.046657
      dxz     :     0.920791
      dyz     :     0.920791
      dx2y2   :     0.989714
      dxy     :     0.989714
      f0      :     0.026793  f :     0.035105
      f+1     :     0.003019
      f-1     :     0.003019
      f+2     :     0.001137
      f-2     :     0.001137
      f+3     :     0.000000
      f-3     :     0.000000
      g0      :     0.004971  g :     0.005816
      g+1     :     0.000392
      g-1     :     0.000392
      g+2     :     0.000031
      g-2     :     0.000031
      g+3     :     0.000000
      g-3     :     0.000000
      g+4     :     0.000000
      g-4     :     0.000000
  1 H s       :     1.084826  s :     1.084826
      pz      :     0.187856  p :     0.300984
      px      :     0.056564
      py      :     0.056564
      dz2     :     0.139285  d :     0.285649
      dxz     :     0.064064
      dyz     :     0.064064
      dx2y2   :     0.009118
      dxy     :     0.009118

SPIN
  0 V s       :    -0.078943  s :    -0.078943
      pz      :     0.025584  p :     0.057647
      px      :     0.016032
      py      :     0.016032
      dz2     :     0.051823  d :     3.865828
      dxz     :     0.917288
      dyz     :     0.917288
      dx2y2   :     0.989714
      dxy     :     0.989714
      f0      :    -0.001156  f :     0.005889
      f+1     :     0.002386
      f-1     :     0.002386
      f+2     :     0.001137
      f-2     :     0.001137
      f+3     :    -0.000000
      f-3     :    -0.000000
      g0      :    -0.000364  g :     0.000337
      g+1     :     0.000319
      g-1     :     0.000319
      g+2     :     0.000031
      g-2     :     0.000031
      g+3     :    -0.000000
      g-3     :    -0.000000
      g+4     :    -0.000000
      g-4     :    -0.000000
  1 H s       :     0.004229  s :     0.004229
      pz      :    -0.000312  p :     0.071547
      px      :     0.035930
      py      :     0.035930
      dz2     :    -0.000861  d :     0.073466
      dxz     :     0.028045
      dyz     :     0.028045
      dx2y2   :     0.009118
      dxy     :     0.009118


                      *****************************
                      * MAYER POPULATION ANALYSIS *
                      *****************************

  NA   - Mulliken gross atomic population
  ZA   - Total nuclear charge
  QA   - Mulliken gross atomic charge
  VA   - Mayer's total valence
  BVA  - Mayer's bonded valence
  FA   - Mayer's free valence

  ATOM       NA         ZA         QA         VA         BVA        FA
  0 V     22.7494    23.0000     0.2506     4.9539     0.9394     4.0145
  1 H      1.2506     1.0000    -0.2506     0.9509     0.9394     0.0115

  Mayer bond orders larger than 0.100000
B(  0-V ,  1-H ) :   0.9394 

-------
TIMINGS
-------

Total SCF time: 0 days 0 hours 3 min 14 sec 

Total time                  ....     194.995 sec
Sum of individual times     ....     194.637 sec  ( 99.8%)

Fock matrix formation       ....     194.317 sec  ( 99.7%)
  XC integration            ....       0.403 sec  (  0.2% of F)
    Basis function eval.    ....       0.061 sec  ( 15.1% of XC)
    Density eval.           ....       0.062 sec  ( 15.5% of XC)
    XC-Functional eval.     ....       0.017 sec  (  4.1% of XC)
    XC-Potential eval.      ....       0.166 sec  ( 41.2% of XC)
Diagonalization             ....       0.054 sec  (  0.0%)
Density matrix formation    ....       0.009 sec  (  0.0%)
Population analysis         ....       0.005 sec  (  0.0%)
Initial guess               ....       0.091 sec  (  0.0%)
Orbital Transformation      ....       0.000 sec  (  0.0%)
Orbital Orthonormalization  ....       0.000 sec  (  0.0%)
DIIS solution               ....       0.019 sec  (  0.0%)
Grid generation             ....       0.142 sec  (  0.1%)

-------------------------   --------------------
FINAL SINGLE POINT ENERGY      -944.422909987463
-------------------------   --------------------


                            ***************************************
                            *     ORCA property calculations      *
                            ***************************************

                                    ---------------------
                                    Active property flags
                                    ---------------------
   (+) Dipole Moment


------------------------------------------------------------------------------
                       ORCA ELECTRIC PROPERTIES CALCULATION
------------------------------------------------------------------------------

Dipole Moment Calculation                       ... on
Quadrupole Moment Calculation                   ... off
Polarizability Calculation                      ... off
GBWName                                         ... 13_VH.gbw
Electron density file                           ... 13_VH.scfp
The origin for moment calculation is the CENTER OF MASS  = ( 0.000000,  0.000000  0.355630)

-------------
DIPOLE MOMENT
-------------
                                X             Y             Z
Electronic contribution:     -0.00000      -0.00000      -3.28166
Nuclear contribution   :      0.00000       0.00000       1.70553
                        -----------------------------------------
Total Dipole Moment    :     -0.00000      -0.00000      -1.57612
                        -----------------------------------------
Magnitude (a.u.)       :      1.57612
Magnitude (Debye)      :      4.00618



--------------------
Rotational spectrum 
--------------------
 
Rotational constants in cm-1:     0.000000     5.977214     5.977214 
Rotational constants in MHz :     0.000000 179192.381350 179192.381350 

 Dipole components along the rotational axes: 
x,y,z [a.u.] :    -1.576120    -0.000000    -0.000000 
x,y,z [Debye]:    -4.006179    -0.000000    -0.000000 

 

Timings for individual modules:

Sum of individual times         ...      198.644 sec (=   3.311 min)
GTO integral calculation        ...        3.064 sec (=   0.051 min)   1.5 %
SCF iterations                  ...      195.580 sec (=   3.260 min)  98.5 %
                             ****ORCA TERMINATED NORMALLY****
TOTAL RUN TIME: 0 days 0 hours 3 minutes 19 seconds 232 msec
