
                                 *****************
                                 * O   R   C   A *
                                 *****************

           --- An Ab Initio, DFT and Semiempirical electronic structure package ---

                  #######################################################
                  #                        -***-                        #
                  #          Department of theory and spectroscopy      #
                  #               Directorship: Frank Neese             #
                  #        Max Planck Institute fuer Kohlenforschung    #
                  #                Kaiser Wilhelm Platz 1               #
                  #                 D-45470 Muelheim/Ruhr               #
                  #                      Germany                        #
                  #                                                     #
                  #                  All rights reserved                #
                  #                        -***-                        #
                  #######################################################


                         Program Version 4.2.0 -  RELEASE  -


 With contributions from (in alphabetic order):
   Daniel Aravena         : Magnetic Suceptibility
   Michael Atanasov       : Ab Initio Ligand Field Theory (pilot matlab implementation)
   Alexander A. Auer      : GIAO ZORA, VPT2
   Ute Becker             : Parallelization
   Giovanni Bistoni       : ED, misc. LED, open-shell LED, HFLED
   Martin Brehm           : Molecular dynamics
   Dmytro Bykov           : SCF Hessian
   Vijay G. Chilkuri      : MRCI spin determinant printing, contributions to CSF-ICE
   Dipayan Datta          : RHF DLPNO-CCSD density
   Achintya Kumar Dutta   : EOM-CC, STEOM-CC
   Dmitry Ganyushin       : Spin-Orbit,Spin-Spin,Magnetic field MRCI
   Miquel Garcia          : C-PCM Hessian, Gaussian charge scheme
   Yang Guo               : DLPNO-NEVPT2, CIM, IAO-localization
   Andreas Hansen         : Spin unrestricted coupled pair/coupled cluster methods
   Benjamin Helmich-Paris : CASSCF linear response (MC-RPA)
   Lee Huntington         : MR-EOM, pCC
   Robert Izsak           : Overlap fitted RIJCOSX, COSX-SCS-MP3, EOM
   Christian Kollmar      : KDIIS, OOCD, Brueckner-CCSD(T), CCSD density
   Simone Kossmann        : Meta GGA functionals, TD-DFT gradient, OOMP2, MP2 Hessian
   Martin Krupicka        : AUTO-CI
   Lucas Lang             : DCDCAS
   Dagmar Lenk            : GEPOL surface, SMD
   Dimitrios Liakos       : Extrapolation schemes; Compound Job, initial MDCI parallelization
   Dimitrios Manganas     : Further ROCIS development; embedding schemes
   Dimitrios Pantazis     : SARC Basis sets
   Taras Petrenko         : DFT Hessian,TD-DFT gradient, ASA, ECA, R-Raman, ABS, FL, XAS/XES, NRVS
   Peter Pinski           : DLPNO-MP2, DLPNO-MP2 Gradient
   Christoph Reimann      : Effective Core Potentials
   Marius Retegan         : Local ZFS, SOC
   Christoph Riplinger    : Optimizer, TS searches, QM/MM, DLPNO-CCSD(T), (RO)-DLPNO pert. Triples
   Tobias Risthaus        : Range-separated hybrids, TD-DFT gradient, RPA, STAB
   Michael Roemelt        : Original ROCIS implementation
   Masaaki Saitow         : Open-shell DLPNO-CCSD energy and density
   Barbara Sandhoefer     : DKH picture change effects
   Avijit Sen             : IP-ROCIS
   Kantharuban Sivalingam : CASSCF convergence, NEVPT2, FIC-MRCI
   Bernardo de Souza      : ESD, SOC TD-DFT
   Georgi Stoychev        : AutoAux, RI-MP2 NMR
   Willem Van den Heuvel  : Paramagnetic NMR
   Boris Wezisla          : Elementary symmetry handling
   Frank Wennmohs         : Technical directorship


 We gratefully acknowledge several colleagues who have allowed us to
 interface, adapt or use parts of their codes:
   Stefan Grimme, W. Hujo, H. Kruse,             : VdW corrections, initial TS optimization,
                  C. Bannwarth                     DFT functionals, gCP, sTDA/sTD-DF
   Ed Valeev, F. Pavosevic, A. Kumar             : LibInt (2-el integral package), F12 methods
   Garnet Chan, S. Sharma, J. Yang, R. Olivares  : DMRG
   Ulf Ekstrom                                   : XCFun DFT Library
   Mihaly Kallay                                 : mrcc  (arbitrary order and MRCC methods)
   Andreas Klamt, Michael Diedenhofen            : otool_cosmo (COSMO solvation model)
   Jiri Pittner, Ondrej Demel                    : Mk-CCSD
   Frank Weinhold                                : gennbo (NPA and NBO analysis)
   Christopher J. Cramer and Donald G. Truhlar   : smd solvation model
   Lars Goerigk                                  : TD-DFT with DH, B97 family of functionals
   V. Asgeirsson, H. Jonsson                     : NEB implementation
   FAccTs GmbH                                   : IRC, NEB, NEB-TS, Multilevel, MM, QM/MM, CI optimization
   S Lehtola, MJT Oliveira, MAL Marques          : LibXC Library


 Your calculation uses the libint2 library for the computation of 2-el integrals
 For citations please refer to: http://libint.valeyev.net

 Your ORCA version has been built with support for libXC version: 4.2.3
 For citations please refer to: https://tddft.org/programs/libxc/

 This ORCA versions uses:
   CBLAS   interface :  Fast vector & matrix operations
   LAPACKE interface :  Fast linear algebra routines
   SCALAPACK package :  Parallel linear algebra routines


Your calculation utilizes the DFT-NL dispersion correction.
Cite in your paper:
Vydrov, O. A.; Van Voorhis, T. J. Chem. Phys. 2010, 133, 244103
Hujo, W.; Grimme, S. J. Chem. Theory Comput. 2011, 7, 3866 
   

----- Orbital basis set information -----
Your calculation utilizes the basis: aug-cc-pVTZ 
    H, B-Ne : Obtained from the ccRepo (grant-hill.group.shef.ac.uk/ccrepo) Feb. 2017
              R. A. Kendall, T. H. Dunning, Jr., R. J. Harrison, J. Chem. Phys. 96, 6796 (1992)
         He : Obtained from the ccRepo (grant-hill.group.shef.ac.uk/ccrepo) Feb. 2017
              D. E. Woon, T. H. Dunning, Jr., J. Chem. Phys. 100, 2975 (1994)
  Li-Be, Na : Obtained from the ccRepo (grant-hill.group.shef.ac.uk/ccrepo) Feb. 2017
              B. P. Prascher, D. E. Woon, K. A. Peterson, T. H. Dunning, Jr., A. K. Wilson, Theor. Chem. Acc. 128, 69 (2011)
         Mg : Obtained from the Peterson Research Group Website (tyr0.chem.wsu.edu/~kipeters) Feb. 2017
              B. P. Prascher, D. E. Woon, K. A. Peterson, T. H. Dunning, Jr., A. K. Wilson, Theor. Chem. Acc. 128, 69 (2011)
      Al-Ar : Obtained from the ccRepo (grant-hill.group.shef.ac.uk/ccrepo) Feb. 2017
              D. E. Woon, T. H. Dunning, Jr., J. Chem. Phys. 98, 1358 (1993)
      Sc-Zn : Obtained from the ccRepo (grant-hill.group.shef.ac.uk/ccrepo) Feb. 2017
              N. B. Balabanov, K. A. Peterson, J. Chem. Phys. 123, 064107 (2005)
              N. B. Balabanov, K. A. Peterson, J. Chem. Phys. 125, 074110 (2006)
      Ga-Kr : Obtained from the ccRepo (grant-hill.group.shef.ac.uk/ccrepo) Feb. 2017
              A. K. Wilson, D. E. Woon, K. A. Peterson, T. H. Dunning, Jr., J. Chem. Phys. 110, 7667 (1999)
     Ag, Au : Obtained from the Peterson Research Group Website (tyr0.chem.wsu.edu/~kipeters) Feb. 2017
              K. A. Peterson, C. Puzzarini, Theor. Chem. Acc. 114, 283 (2005)

----- AuxJK basis set information -----
Your calculation utilizes the auxiliary basis: def2/JK
   H-Ba, Hf-Rn: F. Weigend, J. Comput. Chem. 29, 167 (2008).

================================================================================
                                        WARNINGS
                       Please study these warnings very carefully!
================================================================================


WARNING: your system is open-shell and RHF/RKS was chosen
  ===> : WILL SWITCH to UHF/UKS


INFO   : the flag for use of LIBINT has been found!

================================================================================
                                       INPUT FILE
================================================================================
NAME = 15_VCl.in
|  1> #
|  2> # 15_VCl wb97m-v/aug-cc-pvtz
|  3> #
|  4> ! wb97m-v aug-cc-pvtz def2/jk grid4 nofinalgrid
|  5> 
|  6> *xyz 0 5
|  7>   V   0.00000000000000      0.00000000000000     -0.10591307408469
|  8>   Cl  0.00000000000000      0.00000000000000      2.10591307408469
|  9> *
| 10> 
| 11> %pal
| 12> nprocs 24
| 13> end
| 14> 
| 15> 
| 16>                          ****END OF INPUT****
================================================================================

                       ****************************
                       * Single Point Calculation *
                       ****************************

---------------------------------
CARTESIAN COORDINATES (ANGSTROEM)
---------------------------------
  V      0.000000    0.000000   -0.105913
  Cl     0.000000    0.000000    2.105913

----------------------------
CARTESIAN COORDINATES (A.U.)
----------------------------
  NO LB      ZA    FRAG     MASS         X           Y           Z
   0 V    23.0000    0    50.940    0.000000    0.000000   -0.200147
   1 Cl   17.0000    0    35.453    0.000000    0.000000    3.979599

--------------------------------
INTERNAL COORDINATES (ANGSTROEM)
--------------------------------
 V      0   0   0     0.000000000000     0.00000000     0.00000000
 Cl     1   0   0     2.211826148169     0.00000000     0.00000000

---------------------------
INTERNAL COORDINATES (A.U.)
---------------------------
 V      0   0   0     0.000000000000     0.00000000     0.00000000
 Cl     1   0   0     4.179745675886     0.00000000     0.00000000

---------------------
BASIS SET INFORMATION
---------------------
There are 2 groups of distinct atoms

 Group   1 Type V   : 116s77p23d3f2g contracted to 8s7p5d3f2g pattern {19191919191911/151515151511/77711/111/11}
 Group   2 Type Cl  : 42s17p3d2f contracted to 6s5p3d2f pattern {131313111/77111/111/11}

Atom   0V    basis set group =>   1
Atom   1Cl   basis set group =>   2
----------------------------------
AUXILIARY/JK BASIS SET INFORMATION
----------------------------------
There are 2 groups of distinct atoms

 Group   1 Type V   : 19s14p12d10f7g3h1i contracted to 16s13p11d9f5g3h1i pattern {4111111111111111/2111111111111/21111111111/211111111/31111/111/1}
 Group   2 Type Cl  : 16s12p10d4f1g contracted to 13s11p9d4f1g pattern {4111111111111/21111111111/211111111/1111/1}

Atom   0V    basis set group =>   1
Atom   1Cl   basis set group =>   2


           ************************************************************
           *        Program running with 24 parallel MPI-processes    *
           *              working on a common directory               *
           ************************************************************
------------------------------------------------------------------------------
                           ORCA GTO INTEGRAL CALCULATION
------------------------------------------------------------------------------

                         BASIS SET STATISTICS AND STARTUP INFO

 # of primitive gaussian shells          ...  285
 # of primitive gaussian functions       ...  623
 # of contracted shells                  ...   41
 # of contracted basis functions         ...  143
 Highest angular momentum                ...    4
 Maximum contraction depth               ...   19
 Integral package used                   ... LIBINT
 Integral threshhold            Thresh   ...  1.000e-10
 Primitive cut-off              TCut     ...  1.000e-11


------------------------------ INTEGRAL EVALUATION ----------------------------


 * One electron integrals 
 Pre-screening matrix                    ... done
 Shell pair data                         ... done (   0.001 sec)



           ************************************************************
           *        Program running with 24 parallel MPI-processes    *
           *              working on a common directory               *
           ************************************************************
-------------------------------------------------------------------------------
                                 ORCA SCF
-------------------------------------------------------------------------------

------------
SCF SETTINGS
------------
Hamiltonian:
 Density Functional     Method          .... DFT(GTOs)
 Exchange Functional    Exchange        .... WB97M-V
 Correlation Functional Correlation     .... WB97M-V
 Gradients option       PostSCFGGA      .... off
 Hybrid DFT is turned on
   Fraction HF Exchange ScalHFX         ....  0.150000
   Scaling of DF-GGA-X  ScalDFX         ....  0.000000
   Scaling of DF-GGA-C  ScalDFC         ....  1.000000
   Scaling of DF-LDA-C  ScalLDAC        ....  1.000000
   Perturbative correction              ....  0.000000
   Density functional embedding theory  .... OFF
 Long-range corrected/Screened/Range-Separated Hybrid DFT is turned on
   Amount of maximum screened exact exchange              ....  0.850000
   Range separation parameter mu (erf(mu*r12)/r12)        ....  0.300000
   NL short-range parameter             ....  6.000000
   NL long-range parameter              ....  0.010000


General Settings:
 Integral files         IntName         .... 15_VCl
 Hartree-Fock type      HFTyp           .... UHF
 Total Charge           Charge          ....    0
 Multiplicity           Mult            ....    5
 Number of Electrons    NEL             ....   40
 Basis Dimension        Dim             ....  143
 Nuclear Repulsion      ENuc            ....     93.5463615061 Eh

Convergence Acceleration:
 DIIS                   CNVDIIS         .... on
   Start iteration      DIISMaxIt       ....    12
   Startup error        DIISStart       ....  0.200000
   # of expansion vecs  DIISMaxEq       ....     5
   Bias factor          DIISBfac        ....   1.050
   Max. coefficient     DIISMaxC        ....  10.000
 Newton-Raphson         CNVNR           .... off
 SOSCF                  CNVSOSCF        .... off
 Level Shifting         CNVShift        .... on
   Level shift para.    LevelShift      ....    0.2500
   Turn off err/grad.   ShiftErr        ....    0.0010
 Zerner damping         CNVZerner       .... off
 Static damping         CNVDamp         .... on
   Fraction old density DampFac         ....    0.7000
   Max. Damping (<1)    DampMax         ....    0.9800
   Min. Damping (>=0)   DampMin         ....    0.0000
   Turn off err/grad.   DampErr         ....    0.1000
 Fernandez-Rico         CNVRico         .... off

SCF Procedure:
 Maximum # iterations   MaxIter         ....   125
 SCF integral mode      SCFMode         .... Direct
   Integral package                     .... LIBINT
 Reset frequency        DirectResetFreq ....    20
 Integral Threshold     Thresh          ....  1.000e-10 Eh
 Primitive CutOff       TCut            ....  1.000e-11 Eh

Convergence Tolerance:
 Convergence Check Mode ConvCheckMode   .... Total+1el-Energy
 Convergence forced     ConvForced      .... 0
 Energy Change          TolE            ....  1.000e-06 Eh
 1-El. energy change                    ....  1.000e-03 Eh
 DIIS Error             TolErr          ....  1.000e-06


Diagonalization of the overlap matrix:
Smallest eigenvalue                        ... 6.367e-05
Time for diagonalization                   ...    0.004 sec
Threshold for overlap eigenvalues          ... 1.000e-08
Number of eigenvalues below threshold      ... 0
Time for construction of square roots      ...    0.003 sec
Total time needed                          ...    0.007 sec

-------------------
DFT GRID GENERATION
-------------------

General Integration Accuracy     IntAcc      ...  4.670
Radial Grid Type                 RadialGrid  ... Gauss-Chebyshev
Angular Grid (max. acc.)         AngularGrid ... Lebedev-302
Angular grid pruning method      GridPruning ... 3 (G Style)
Weight generation scheme         WeightScheme... Becke
Basis function cutoff            BFCut       ...    1.0000e-10
Integration weight cutoff        WCut        ...    1.0000e-14
Grids for H and He will be reduced by one unit

# of grid points (after initial pruning)     ...  16402 (   0.0 sec)
# of grid points (after weights+screening)   ...  16375 (   0.0 sec)
nearest neighbour list constructed           ...    0.0 sec
Grid point re-assignment to atoms done       ...    0.0 sec
Grid point division into batches done        ...    0.1 sec
Reduced shell lists constructed in    0.1 sec

Total number of grid points                  ...    16375
Total number of batches                      ...      257
Average number of points per batch           ...       63
Average number of grid points per atom       ...     8188
Average number of shells per batch           ...    16.83 (41.06%)
Average number of basis functions per batch  ...    44.50 (31.12%)
Average number of large shells per batch     ...     9.17 (54.46%)
Average number of large basis fcns per batch ...    24.83 (55.81%)
Maximum spatial batch extension              ...  24.49, 24.19, 18.13 au
Average spatial batch extension              ...   0.85,  0.83,  0.66 au

Time for grid setup =    0.164 sec

------------------------------
INITIAL GUESS: MODEL POTENTIAL
------------------------------
Loading Hartree-Fock densities                     ... done
Calculating cut-offs                               ... done
Setting up the integral package                    ... done
Initializing the effective Hamiltonian             ... done
Starting the Coulomb interaction                   ... done (   0.0 sec)
Reading the grid                                   ... done
Mapping shells                                     ... done
Starting the XC term evaluation                    ... done (   0.0 sec)
  promolecular density results
     # of electrons  =     39.999998021
     EX              =    -71.329022863
     EC              =     -1.615976095
     EX+EC           =    -72.944998958
Transforming the Hamiltonian                       ... done (   0.0 sec)
Diagonalizing the Hamiltonian                      ... done (   0.0 sec)
Back transforming the eigenvectors                 ... done (   0.0 sec)
Now organizing SCF variables                       ... done
                      ------------------
                      INITIAL GUESS DONE (   0.3 sec)
                      ------------------
--------------
SCF ITERATIONS
--------------
ITER       Energy         Delta-E        Max-DP      RMS-DP      [F,P]     Damp
               ***  Starting incremental Fock matrix formation  ***
  0  -1404.2392632810   0.000000000000 0.14700296  0.00236317  0.1251106 0.7000
  1  -1404.2640636723  -0.02480039131438.09983287  0.34833850  0.0632722 0.7000
                               ***Turning on DIIS***
  2  -1404.1619144132   0.10214925913338.21750001  0.34902859  0.0376565 0.0000
  3  -1404.2975708056  -0.135656392440 0.04231879  0.00079056  0.0391029 0.0000
  4  -1404.3029505409  -0.005379735250 0.02943434  0.00047924  0.0244209 0.0000
  5  -1404.3049174304  -0.001966889464 0.02490546  0.00048431  0.0137244 0.0000
  6  -1404.3063486488  -0.001431218458 0.00965477  0.00016432  0.0070622 0.0000
  7  -1404.3069117425  -0.000563093702 0.00913816  0.00015055  0.0040884 0.0000
  8  -1404.3073079309  -0.000396188379 0.01032383  0.00013332  0.0036812 0.0000
  9  -1404.3076062361  -0.000298305205 0.01194152  0.00018724  0.0034635 0.0000
 10  -1404.3078944890  -0.000288252868 0.01257018  0.00015825  0.0032122 0.0000
 11  -1404.3080819754  -0.000187486456 0.01618293  0.00021020  0.0028697 0.0000
 12  -1404.3083127150  -0.000230739553 0.00988065  0.00010591  0.0025466 0.0000
 13  -1404.3083763427  -0.000063627693 0.01683508  0.00019777  0.0021505 0.0000
 14  -1404.3084810772  -0.000104734571 0.02359009  0.00033965  0.0019755 0.0000
 15  -1404.3085482264  -0.000067149202 0.01004764  0.00011733  0.0015529 0.0000
 16  -1404.3085529355  -0.000004709077 0.00794304  0.00009744  0.0012867 0.0000
 17  -1404.3085225424   0.000030393165 0.01091371  0.00015956  0.0010087 0.0000
 18  -1404.3084678178   0.000054724596 0.01255220  0.00014396  0.0007489 0.0000
 19  -1404.3083618849   0.000105932819 0.00127248  0.00002722  0.0011623 0.0000
               *** Restarting incremental Fock matrix formation ***
                                   *** Resetting DIIS ***
 20  -1404.3083622361  -0.00000035114052.23038826  0.80137063  0.0005118 0.0000
 21  -1403.8210825334   0.487279702673 0.00075526  0.00000978  0.1260811 0.7000
 22  -1403.8210875348  -0.000005001400 0.00062062  0.00000800  0.1260766 0.7000
 23  -1403.8210924030  -0.000004868239 0.00045018  0.00000580  0.1260724 0.7000
 24  -1403.8210962737  -0.000003870613 0.00032009  0.00000412  0.1260690 0.7000
 25  -1403.8210991657  -0.00000289208815.68573483  0.24046147  0.1260666 0.7000
 26  -1403.9895951119  -0.16849594614036.57703510  0.56102336  0.0428445 0.0000
 27  -1404.2826132742  -0.293018162327 0.01704472  0.00037434  0.0948673 0.0000
 28  -1404.2953262374  -0.012712963173 0.00863341  0.00022196  0.0648330 0.0000
 29  -1404.3008636265  -0.00553738916682.57722175  0.78955519  0.0487908 0.0000
 30  -1403.8521542752   0.448709351343 0.65380123  0.01258203  0.0924613 0.0000
 31  -1403.7921441549   0.060010120297 4.53940167  0.05216339  0.1032510 0.7000
 32  -1403.6224044563   0.169739698576 4.33474960  0.03978577  0.1311088 0.7000
 33  -1403.4823632721   0.140041184217 6.57802941  0.06272142  0.1531188 0.7000
 34  -1403.3949147268   0.08744854531222.62353810  0.21893252  0.1668125 0.7000
 35  -1403.7284264106  -0.33351168381852.84966101  0.51148131  0.0977438 0.0000
 36  -1404.2951550743  -0.566728663726 0.07072945  0.00162606  0.0595788 0.0000
 37  -1404.2992907273  -0.004135652994 0.02360481  0.00038022  0.0527811 0.0000
 38  -1404.3012259614  -0.001935234010 0.00966420  0.00019862  0.0468782 0.0000
 39  -1404.3025768294  -0.001350868045 0.00589447  0.00014476  0.0424223 0.0000
               *** Restarting incremental Fock matrix formation ***
                                   *** Resetting DIIS ***
 40  -1404.3039036952  -0.001326865847 0.04433742  0.00063221  0.0376713 0.0000
 41  -1404.3083476064  -0.004443911185 0.02053946  0.00031901  0.0141586 0.0000
 42  -1404.3088113938  -0.000463787389 0.01221265  0.00023737  0.0031941 0.0000
 43  -1404.3087771206   0.000034273176 0.00587009  0.00014694  0.0023844 0.0000
 44  -1404.3086956442   0.000081476423 0.00502174  0.00009309  0.0017329 0.0000
 45  -1404.3086497584   0.000045885811 0.00514445  0.00006668  0.0016722 0.0000
 46  -1404.3085935853   0.000056173146 0.00478892  0.00005913  0.0014455 0.0000
 47  -1404.3085544153   0.000039169992 0.00399894  0.00006972  0.0011984 0.0000
 48  -1404.3085246044   0.000029810826 0.00615769  0.00007753  0.0009803 0.0000
 49  -1404.3084515558   0.000073048669 0.00231538  0.00003958  0.0006319 0.0000
 50  -1404.3084246529   0.000026902905 0.00373604  0.00006320  0.0004844 0.0000
 51  -1404.3084026967   0.000021956181 0.00077150  0.00001828  0.0015117 0.0000
 52  -1404.3084019889   0.000000707747 0.00272189  0.00004482  0.0002847 0.0000
 53  -1404.3083739946   0.000027994385 0.00547635  0.00006982  0.0003186 0.0000
 54  -1404.3083914632  -0.000017468608 0.00196759  0.00003988  0.0003128 0.0000
 55  -1404.3083938309  -0.000002367748 0.00104364  0.00001567  0.0005075 0.0000
                 **** Energy Check signals convergence ****

               *****************************************************
               *                     SUCCESS                       *
               *           SCF CONVERGED AFTER  56 CYCLES          *
               *****************************************************


Setting up the DFT-NL grid :

General Integration Accuracy     IntAcc      ...  4.340
Radial Grid Type                 RadialGrid  ... Gauss-Chebyshev
Angular Grid (max. acc.)         AngularGrid ... Lebedev-110
Angular grid pruning method      GridPruning ... 3 (G Style)
Weight generation scheme         WeightScheme... Becke
Basis function cutoff            BFCut       ...    1.0000e-10
Integration weight cutoff        WCut        ...    1.0000e-14
Grids for H and He will be reduced by one unit

# of grid points (after initial pruning)     ...   4816 (   0.0 sec)
# of grid points (after weights+screening)   ...   4791 (   0.0 sec)
nearest neighbour list constructed           ...    0.0 sec
Grid point re-assignment to atoms done       ...    0.0 sec
Grid point division into batches done        ...    0.0 sec
Reduced shell lists constructed in    0.0 sec

Total number of grid points                  ...     4791
Total number of batches                      ...       76
Average number of points per batch           ...       63
Average number of grid points per atom       ...     2396
Average number of shells per batch           ...    23.60 (57.56%)
Average number of basis functions per batch  ...    79.60 (55.66%)
Average number of large shells per batch     ...    18.00 (76.27%)
Average number of large basis fcns per batch ...    54.80 (68.84%)
Maximum spatial batch extension              ...  18.79, 28.73, 16.39 au
Average spatial batch extension              ...   0.97,  1.26,  0.86 au

Final grid set up in    0.0 sec

-------------------------------------------------------------------------------
                         DFT-NL dispersion correction                          
-------------------------------------------------------------------------------

SC Energy -1404.308393766 
NL    Energy 0.167291806 
SC+NL Energy -1404.141101961 
NL done in    0.0 sec
-------------------------------------------------------------------------------

----------------
TOTAL SCF ENERGY
----------------

Total Energy       :        -1404.14110196 Eh          -38208.62187 eV

Components:
Nuclear Repulsion  :           93.54636151 Eh            2545.52591 eV
Electronic Energy  :        -1497.68746347 Eh          -40754.14778 eV
One Electron Energy:        -2119.50414440 Eh          -57674.63989 eV
Two Electron Energy:          621.81668093 Eh           16920.49211 eV

Virial components:
Potential Energy   :        -2806.05292903 Eh          -76356.58209 eV
Kinetic Energy     :         1401.91182707 Eh           38147.96022 eV
Virial Ratio       :            2.00159017


DFT components:
N(Alpha)           :       21.999999623317 electrons
N(Beta)            :       17.999997509297 electrons
N(Total)           :       39.999997132614 electrons
E(X)               :      -55.612872575445 Eh       
E(C)               :       -1.847984040047 Eh       
NL Energy, E(C,NL) :        0.167291805506 Eh       
E(XC)              :      -57.293564809986 Eh       
DFET-embed. en.    :        0.000000000000 Eh       

---------------
SCF CONVERGENCE
---------------

  Last Energy change         ...    6.4830e-08  Tolerance :   1.0000e-06
  Last MAX-Density change    ...    7.3534e-04  Tolerance :   1.0000e-05
  Last RMS-Density change    ...    1.1549e-05  Tolerance :   1.0000e-06
  Last DIIS Error            ...    4.6645e-04  Tolerance :   1.0000e-06

             **** THE GBW FILE WAS UPDATED (15_VCl.gbw) ****
             **** DENSITY FILE WAS UPDATED (15_VCl.scfp) ****
             **** ENERGY FILE WAS UPDATED (15_VCl.en.tmp) ****
----------------------
UHF SPIN CONTAMINATION
----------------------

Warning: in a DFT calculation there is little theoretical justification to 
         calculate <S**2> as in Hartree-Fock theory. We will do it anyways
         but you should keep in mind that the values have only limited relevance

Expectation value of <S**2>     :     6.004812
Ideal value S*(S+1) for S=2.0   :     6.000000
Deviation                       :     0.004812

             **** THE GBW FILE WAS UPDATED (15_VCl.gbw) ****
             **** DENSITY FILE WAS UPDATED (15_VCl.scfp) ****
----------------
ORBITAL ENERGIES
----------------
                 SPIN UP ORBITALS
  NO   OCC          E(Eh)            E(eV) 
   0   1.0000    -197.275137     -5368.1294 
   1   1.0000    -101.842469     -2771.2745 
   2   1.0000     -22.423085      -610.1632 
   3   1.0000     -18.846980      -512.8524 
   4   1.0000     -18.845086      -512.8009 
   5   1.0000     -18.841487      -512.7029 
   6   1.0000      -9.600825      -261.2517 
   7   1.0000      -7.300996      -198.6702 
   8   1.0000      -7.299879      -198.6398 
   9   1.0000      -7.299605      -198.6323 
  10   1.0000      -2.773369       -75.4672 
  11   1.0000      -1.798871       -48.9498 
  12   1.0000      -1.793789       -48.8115 
  13   1.0000      -1.788456       -48.6664 
  14   1.0000      -0.884203       -24.0604 
  15   1.0000      -0.436107       -11.8671 
  16   1.0000      -0.409931       -11.1548 
  17   1.0000      -0.398073       -10.8321 
  18   1.0000      -0.324976        -8.8430 
  19   1.0000      -0.320425        -8.7192 
  20   1.0000      -0.311916        -8.4877 
  21   1.0000      -0.277990        -7.5645 
  22   0.0000      -0.024191        -0.6583 
  23   0.0000      -0.002812        -0.0765 
  24   0.0000       0.003962         0.1078 
  25   0.0000       0.016171         0.4400 
  26   0.0000       0.018016         0.4902 
  27   0.0000       0.024606         0.6696 
  28   0.0000       0.045255         1.2314 
  29   0.0000       0.048941         1.3318 
  30   0.0000       0.050658         1.3785 
  31   0.0000       0.051070         1.3897 
  32   0.0000       0.053354         1.4518 
  33   0.0000       0.056982         1.5506 
  34   0.0000       0.057393         1.5618 
  35   0.0000       0.087189         2.3725 
  36   0.0000       0.117607         3.2003 
  37   0.0000       0.148719         4.0469 
  38   0.0000       0.155485         4.2310 
  39   0.0000       0.155699         4.2368 
  40   0.0000       0.177712         4.8358 
  41   0.0000       0.178843         4.8666 
  42   0.0000       0.210574         5.7300 
  43   0.0000       0.222844         6.0639 
  44   0.0000       0.225375         6.1328 
  45   0.0000       0.234143         6.3714 
  46   0.0000       0.236921         6.4469 
  47   0.0000       0.271496         7.3878 
  48   0.0000       0.336583         9.1589 
  49   0.0000       0.336592         9.1591 
  50   0.0000       0.355847         9.6831 
  51   0.0000       0.422844        11.5062 
  52   0.0000       0.425438        11.5768 
  53   0.0000       0.435136        11.8406 
  54   0.0000       0.446547        12.1512 
  55   0.0000       0.446737        12.1563 
  56   0.0000       0.484979        13.1969 
  57   0.0000       0.519016        14.1232 
  58   0.0000       0.519147        14.1267 
  59   0.0000       0.536791        14.6068 
  60   0.0000       0.538092        14.6422 
  61   0.0000       0.587305        15.9814 
  62   0.0000       0.643829        17.5195 
  63   0.0000       0.645659        17.5693 
  64   0.0000       0.682469        18.5709 
  65   0.0000       0.683558        18.6006 
  66   0.0000       0.756276        20.5793 
  67   0.0000       0.764700        20.8086 
  68   0.0000       0.767339        20.8804 
  69   0.0000       0.852093        23.1866 
  70   0.0000       0.854954        23.2645 
  71   0.0000       0.855341        23.2750 
  72   0.0000       0.858647        23.3650 
  73   0.0000       0.858765        23.3682 
  74   0.0000       0.917282        24.9605 
  75   0.0000       0.944425        25.6991 
  76   0.0000       0.947519        25.7833 
  77   0.0000       0.983481        26.7619 
  78   0.0000       1.112245        30.2657 
  79   0.0000       1.112292        30.2670 
  80   0.0000       1.196599        32.5611 
  81   0.0000       1.196862        32.5683 
  82   0.0000       1.341174        36.4952 
  83   0.0000       1.344839        36.5949 
  84   0.0000       1.366199        37.1762 
  85   0.0000       1.429985        38.9119 
  86   0.0000       1.430447        38.9244 
  87   0.0000       1.470405        40.0118 
  88   0.0000       1.472178        40.0600 
  89   0.0000       1.521954        41.4145 
  90   0.0000       1.678923        45.6858 
  91   0.0000       1.682512        45.7835 
  92   0.0000       1.686959        45.9045 
  93   0.0000       1.687062        45.9073 
  94   0.0000       1.715237        46.6740 
  95   0.0000       1.717373        46.7321 
  96   0.0000       1.884227        51.2724 
  97   0.0000       1.887389        51.3585 
  98   0.0000       1.915984        52.1366 
  99   0.0000       1.990033        54.1515 
 100   0.0000       1.990638        54.1680 
 101   0.0000       2.033920        55.3458 
 102   0.0000       2.227367        60.6097 
 103   0.0000       2.264174        61.6113 
 104   0.0000       2.271627        61.8141 
 105   0.0000       2.342642        63.7465 
 106   0.0000       2.342688        63.7478 
 107   0.0000       2.466357        67.1130 
 108   0.0000       2.466567        67.1187 
 109   0.0000       2.471433        67.2511 
 110   0.0000       2.596702        70.6599 
 111   0.0000       2.651179        72.1423 
 112   0.0000       2.652331        72.1736 
 113   0.0000       2.853612        77.6507 
 114   0.0000       2.853633        77.6513 
 115   0.0000       2.874881        78.2295 
 116   0.0000       2.878452        78.3267 
 117   0.0000       2.935020        79.8659 
 118   0.0000       2.936021        79.8932 
 119   0.0000       3.021585        82.2215 
 120   0.0000       3.029206        82.4289 
 121   0.0000       3.033138        82.5359 
 122   0.0000       3.099002        84.3281 
 123   0.0000       3.118917        84.8700 
 124   0.0000       3.371359        91.7394 
 125   0.0000       3.700859       100.7055 
 126   0.0000       4.952118       134.7540 
 127   0.0000       4.952230       134.7570 
 128   0.0000       4.959198       134.9466 
 129   0.0000       4.962947       135.0487 
 130   0.0000       5.060339       137.6988 
 131   0.0000       5.064009       137.7987 
 132   0.0000       5.258808       143.0994 
 133   0.0000       5.259179       143.1095 
 134   0.0000       5.263083       143.2158 
 135   0.0000       5.263665       143.2316 
 136   0.0000       5.322900       144.8435 
 137   0.0000       5.329190       145.0146 
 138   0.0000       5.342834       145.3859 
 139   0.0000       5.433823       147.8618 
 140   0.0000       5.434914       147.8915 
 141   0.0000       5.603700       152.4844 
 142   0.0000       6.382983       173.6898 

                 SPIN DOWN ORBITALS
  NO   OCC          E(Eh)            E(eV) 
   0   1.0000    -197.273928     -5368.0965 
   1   1.0000    -101.842479     -2771.2747 
   2   1.0000     -22.375641      -608.8721 
   3   1.0000     -18.816126      -512.0128 
   4   1.0000     -18.806490      -511.7506 
   5   1.0000     -18.796176      -511.4700 
   6   1.0000      -9.600832      -261.2519 
   7   1.0000      -7.301356      -198.6800 
   8   1.0000      -7.300110      -198.6461 
   9   1.0000      -7.299041      -198.6170 
  10   1.0000      -2.653942       -72.2174 
  11   1.0000      -1.684649       -45.8416 
  12   1.0000      -1.659460       -45.1562 
  13   1.0000      -1.633108       -44.4391 
  14   1.0000      -0.882416       -24.0118 
  15   1.0000      -0.423948       -11.5362 
  16   1.0000      -0.397013       -10.8033 
  17   1.0000      -0.393941       -10.7197 
  18   0.0000      -0.226950        -6.1756 
  19   0.0000      -0.196541        -5.3482 
  20   0.0000      -0.169441        -4.6107 
  21   0.0000      -0.138692        -3.7740 
  22   0.0000      -0.105119        -2.8604 
  23   0.0000      -0.085055        -2.3145 
  24   0.0000      -0.061310        -1.6683 
  25   0.0000      -0.046298        -1.2598 
  26   0.0000      -0.034607        -0.9417 
  27   0.0000      -0.006420        -0.1747 
  28   0.0000       0.001485         0.0404 
  29   0.0000       0.011250         0.3061 
  30   0.0000       0.017860         0.4860 
  31   0.0000       0.039378         1.0715 
  32   0.0000       0.043764         1.1909 
  33   0.0000       0.059597         1.6217 
  34   0.0000       0.063789         1.7358 
  35   0.0000       0.069454         1.8899 
  36   0.0000       0.083583         2.2744 
  37   0.0000       0.119059         3.2398 
  38   0.0000       0.121873         3.3163 
  39   0.0000       0.127865         3.4794 
  40   0.0000       0.140460         3.8221 
  41   0.0000       0.144063         3.9201 
  42   0.0000       0.154984         4.2173 
  43   0.0000       0.158687         4.3181 
  44   0.0000       0.166360         4.5269 
  45   0.0000       0.167656         4.5622 
  46   0.0000       0.185906         5.0588 
  47   0.0000       0.249521         6.7898 
  48   0.0000       0.311374         8.4729 
  49   0.0000       0.311484         8.4759 
  50   0.0000       0.312153         8.4941 
  51   0.0000       0.334637         9.1059 
  52   0.0000       0.334801         9.1104 
  53   0.0000       0.399079        10.8595 
  54   0.0000       0.400631        10.9017 
  55   0.0000       0.423156        11.5147 
  56   0.0000       0.439721        11.9654 
  57   0.0000       0.451706        12.2915 
  58   0.0000       0.454474        12.3669 
  59   0.0000       0.462745        12.5919 
  60   0.0000       0.463310        12.6073 
  61   0.0000       0.518796        14.1171 
  62   0.0000       0.616526        16.7765 
  63   0.0000       0.624347        16.9894 
  64   0.0000       0.666312        18.1313 
  65   0.0000       0.671370        18.2689 
  66   0.0000       0.740563        20.1517 
  67   0.0000       0.779054        21.1991 
  68   0.0000       0.781498        21.2656 
  69   0.0000       0.844926        22.9916 
  70   0.0000       0.854968        23.2649 
  71   0.0000       0.855072        23.2677 
  72   0.0000       0.855079        23.2679 
  73   0.0000       0.860461        23.4143 
  74   0.0000       0.918853        25.0033 
  75   0.0000       0.934855        25.4387 
  76   0.0000       0.944659        25.7055 
  77   0.0000       0.969239        26.3743 
  78   0.0000       1.110769        30.2256 
  79   0.0000       1.110772        30.2256 
  80   0.0000       1.186790        32.2942 
  81   0.0000       1.187003        32.3000 
  82   0.0000       1.339415        36.4473 
  83   0.0000       1.345621        36.6162 
  84   0.0000       1.363478        37.1021 
  85   0.0000       1.471005        40.0281 
  86   0.0000       1.471047        40.0292 
  87   0.0000       1.493531        40.6410 
  88   0.0000       1.493583        40.6425 
  89   0.0000       1.526822        41.5469 
  90   0.0000       1.686530        45.8928 
  91   0.0000       1.691029        46.0152 
  92   0.0000       1.691115        46.0176 
  93   0.0000       1.697254        46.1846 
  94   0.0000       1.721507        46.8446 
  95   0.0000       1.721528        46.8452 
  96   0.0000       1.890128        51.4330 
  97   0.0000       1.891639        51.4741 
  98   0.0000       1.917522        52.1784 
  99   0.0000       1.988201        54.1017 
 100   0.0000       2.000251        54.4296 
 101   0.0000       2.046998        55.7016 
 102   0.0000       2.282549        62.1113 
 103   0.0000       2.318638        63.0934 
 104   0.0000       2.339376        63.6577 
 105   0.0000       2.342762        63.7498 
 106   0.0000       2.342793        63.7506 
 107   0.0000       2.465609        67.0926 
 108   0.0000       2.469493        67.1983 
 109   0.0000       2.483205        67.5714 
 110   0.0000       2.643661        71.9377 
 111   0.0000       2.656297        72.2815 
 112   0.0000       2.662093        72.4392 
 113   0.0000       2.853602        77.6504 
 114   0.0000       2.853603        77.6505 
 115   0.0000       2.911296        79.2204 
 116   0.0000       2.911428        79.2240 
 117   0.0000       2.998125        81.5831 
 118   0.0000       2.999619        81.6238 
 119   0.0000       3.020721        82.1980 
 120   0.0000       3.039023        82.6960 
 121   0.0000       3.044688        82.8502 
 122   0.0000       3.154175        85.8295 
 123   0.0000       3.182540        86.6013 
 124   0.0000       3.432362        93.3993 
 125   0.0000       3.732846       101.5759 
 126   0.0000       5.067673       137.8984 
 127   0.0000       5.069407       137.9456 
 128   0.0000       5.079495       138.2201 
 129   0.0000       5.079512       138.2205 
 130   0.0000       5.146823       140.0522 
 131   0.0000       5.176998       140.8733 
 132   0.0000       5.350176       145.5857 
 133   0.0000       5.350212       145.5867 
 134   0.0000       5.362584       145.9233 
 135   0.0000       5.362901       145.9320 
 136   0.0000       5.389612       146.6588 
 137   0.0000       5.401389       146.9793 
 138   0.0000       5.422823       147.5625 
 139   0.0000       5.493064       149.4739 
 140   0.0000       5.525342       150.3522 
 141   0.0000       5.686246       154.7306 
 142   0.0000       6.382289       173.6709 

                    ********************************
                    * MULLIKEN POPULATION ANALYSIS *
                    ********************************

--------------------------------------------
MULLIKEN ATOMIC CHARGES AND SPIN POPULATIONS
--------------------------------------------
   0 V :    0.374193    3.946454
   1 Cl:   -0.374193    0.053546
Sum of atomic charges         :   -0.0000000
Sum of atomic spin populations:    4.0000000

-----------------------------------------------------
MULLIKEN REDUCED ORBITAL CHARGES AND SPIN POPULATIONS
-----------------------------------------------------
CHARGE
  0 V s       :     6.667221  s :     6.667221
      pz      :     4.142102  p :    12.245779
      px      :     4.054567
      py      :     4.049110
      dz2     :     0.697178  d :     3.690252
      dxz     :     0.663932
      dyz     :     0.422157
      dx2y2   :     0.992313
      dxy     :     0.914672
      f0      :     0.007599  f :     0.018806
      f+1     :     0.005308
      f-1     :     0.005381
      f+2     :     0.000171
      f-2     :     0.000317
      f+3     :     0.000012
      f-3     :     0.000018
      g0      :     0.001472  g :     0.003748
      g+1     :     0.001113
      g-1     :     0.001136
      g+2     :    -0.000000
      g-2     :     0.000014
      g+3     :     0.000001
      g-3     :     0.000002
      g+4     :     0.000005
      g-4     :     0.000005
  1 Cls       :     5.906490  s :     5.906490
      pz      :     3.663708  p :    11.447350
      px      :     3.898903
      py      :     3.884740
      dz2     :     0.003642  d :     0.018382
      dxz     :     0.006574
      dyz     :     0.006140
      dx2y2   :     0.001018
      dxy     :     0.001008
      f0      :     0.000431  f :     0.001971
      f+1     :     0.000452
      f-1     :     0.000444
      f+2     :     0.000332
      f-2     :     0.000308
      f+3     :     0.000001
      f-3     :     0.000001

SPIN
  0 V s       :     0.468352  s :     0.468352
      pz      :     0.035198  p :     0.042221
      px      :     0.006814
      py      :     0.000209
      dz2     :     0.561957  d :     3.429600
      dxz     :     0.603365
      dyz     :     0.357405
      dx2y2   :     0.992301
      dxy     :     0.914573
      f0      :     0.000549  f :     0.006018
      f+1     :     0.002679
      f-1     :     0.002343
      f+2     :     0.000168
      f-2     :     0.000280
      f+3     :    -0.000004
      f-3     :     0.000003
      g0      :    -0.000088  g :     0.000263
      g+1     :     0.000170
      g-1     :     0.000161
      g+2     :    -0.000001
      g-2     :     0.000009
      g+3     :     0.000000
      g-3     :     0.000001
      g+4     :     0.000005
      g-4     :     0.000005
  1 Cls       :     0.015667  s :     0.015667
      pz      :     0.004630  p :     0.027392
      px      :     0.015555
      py      :     0.007207
      dz2     :     0.003170  d :     0.008756
      dxz     :     0.002014
      dyz     :     0.001550
      dx2y2   :     0.001018
      dxy     :     0.001004
      f0      :     0.000560  f :     0.001732
      f+1     :     0.000269
      f-1     :     0.000265
      f+2     :     0.000332
      f-2     :     0.000306
      f+3     :    -0.000000
      f-3     :    -0.000000


                     *******************************
                     * LOEWDIN POPULATION ANALYSIS *
                     *******************************

-------------------------------------------
LOEWDIN ATOMIC CHARGES AND SPIN POPULATIONS
-------------------------------------------
   0 V :   -0.047099    3.871514
   1 Cl:    0.047099    0.128486

----------------------------------------------------
LOEWDIN REDUCED ORBITAL CHARGES AND SPIN POPULATIONS
----------------------------------------------------
CHARGE
  0 V s       :     6.490099  s :     6.490099
      pz      :     4.198767  p :    12.330936
      px      :     4.071600
      py      :     4.060569
      dz2     :     0.817071  d :     3.904099
      dxz     :     0.710599
      dyz     :     0.481766
      dx2y2   :     0.985927
      dxy     :     0.908737
      f0      :     0.101608  f :     0.278497
      f+1     :     0.088899
      f-1     :     0.086697
      f+2     :     0.000554
      f-2     :     0.000710
      f+3     :     0.000012
      f-3     :     0.000018
      g0      :     0.016779  g :     0.043468
      g+1     :     0.013433
      g-1     :     0.013169
      g+2     :     0.000037
      g-2     :     0.000036
      g+3     :     0.000001
      g-3     :     0.000002
      g+4     :     0.000005
      g-4     :     0.000005
  1 Cls       :     5.565680  s :     5.565680
      pz      :     3.735056  p :    11.114228
      px      :     3.694117
      py      :     3.685055
      dz2     :     0.116417  d :     0.186672
      dxz     :     0.034450
      dyz     :     0.027932
      dx2y2   :     0.004050
      dxy     :     0.003822
      f0      :     0.048365  f :     0.086321
      f+1     :     0.017752
      f-1     :     0.013921
      f+2     :     0.003266
      f-2     :     0.003015
      f+3     :     0.000001
      f-3     :     0.000001

SPIN
  0 V s       :     0.441453  s :     0.441453
      pz      :     0.042263  p :     0.071106
      px      :     0.019856
      py      :     0.008987
      dz2     :     0.541716  d :     3.345644
      dxz     :     0.570435
      dyz     :     0.338941
      dx2y2   :     0.985915
      dxy     :     0.908637
      f0      :     0.000557  f :     0.012788
      f+1     :     0.006500
      f-1     :     0.004509
      f+2     :     0.000551
      f-2     :     0.000673
      f+3     :    -0.000004
      f-3     :     0.000003
      g0      :    -0.000323  g :     0.000523
      g+1     :     0.000501
      g-1     :     0.000266
      g+2     :     0.000037
      g-2     :     0.000031
      g+3     :     0.000000
      g-3     :     0.000001
      g+4     :     0.000005
      g-4     :     0.000005
  1 Cls       :     0.018249  s :     0.018249
      pz      :     0.036132  p :     0.045906
      px      :     0.008252
      py      :     0.001522
      dz2     :     0.007327  d :     0.040760
      dxz     :     0.016068
      dyz     :     0.009497
      dx2y2   :     0.004050
      dxy     :     0.003818
      f0      :     0.002621  f :     0.023572
      f+1     :     0.009255
      f-1     :     0.005418
      f+2     :     0.003266
      f-2     :     0.003012
      f+3     :    -0.000000
      f-3     :    -0.000000


                      *****************************
                      * MAYER POPULATION ANALYSIS *
                      *****************************

  NA   - Mulliken gross atomic population
  ZA   - Total nuclear charge
  QA   - Mulliken gross atomic charge
  VA   - Mayer's total valence
  BVA  - Mayer's bonded valence
  FA   - Mayer's free valence

  ATOM       NA         ZA         QA         VA         BVA        FA
  0 V     22.6258    23.0000     0.3742     5.0414     1.1677     3.8736
  1 Cl    17.3742    17.0000    -0.3742     1.1704     1.1677     0.0027

  Mayer bond orders larger than 0.100000
B(  0-V ,  1-Cl) :   1.1677 

-------
TIMINGS
-------

Total SCF time: 0 days 0 hours 15 min 46 sec 

Total time                  ....     946.757 sec
Sum of individual times     ....     946.306 sec  (100.0%)

Fock matrix formation       ....     945.560 sec  ( 99.9%)
  XC integration            ....       2.255 sec  (  0.2% of F)
    Basis function eval.    ....       0.290 sec  ( 12.8% of XC)
    Density eval.           ....       0.324 sec  ( 14.4% of XC)
    XC-Functional eval.     ....       0.071 sec  (  3.1% of XC)
    XC-Potential eval.      ....       0.896 sec  ( 39.7% of XC)
Diagonalization             ....       0.306 sec  (  0.0%)
Density matrix formation    ....       0.036 sec  (  0.0%)
Population analysis         ....       0.007 sec  (  0.0%)
Initial guess               ....       0.101 sec  (  0.0%)
Orbital Transformation      ....       0.000 sec  (  0.0%)
Orbital Orthonormalization  ....       0.000 sec  (  0.0%)
DIIS solution               ....       0.109 sec  (  0.0%)
Grid generation             ....       0.188 sec  (  0.0%)

-------------------------   --------------------
FINAL SINGLE POINT ENERGY     -1404.141101960577
-------------------------   --------------------


                            ***************************************
                            *     ORCA property calculations      *
                            ***************************************

                                    ---------------------
                                    Active property flags
                                    ---------------------
   (+) Dipole Moment


------------------------------------------------------------------------------
                       ORCA ELECTRIC PROPERTIES CALCULATION
------------------------------------------------------------------------------

Dipole Moment Calculation                       ... on
Quadrupole Moment Calculation                   ... off
Polarizability Calculation                      ... off
GBWName                                         ... 15_VCl.gbw
Electron density file                           ... 15_VCl.scfp
The origin for moment calculation is the CENTER OF MASS  = ( 0.000000,  0.000000  1.515091)

-------------
DIPOLE MOMENT
-------------
                                X             Y             Z
Electronic contribution:     -0.00043       0.00024      -4.31391
Nuclear contribution   :      0.00000       0.00000       2.44617
                        -----------------------------------------
Total Dipole Moment    :     -0.00043       0.00024      -1.86774
                        -----------------------------------------
Magnitude (a.u.)       :      1.86774
Magnitude (Debye)      :      4.74741



--------------------
Rotational spectrum 
--------------------
 
Rotational constants in cm-1:     0.000000     0.164840     0.164840 
Rotational constants in MHz :     0.000000  4941.766851  4941.766851 

 Dipole components along the rotational axes: 
x,y,z [a.u.] :    -1.867735     0.000241    -0.000427 
x,y,z [Debye]:    -4.747405     0.000612    -0.001086 

 

Timings for individual modules:

Sum of individual times         ...      950.678 sec (=  15.845 min)
GTO integral calculation        ...        3.383 sec (=   0.056 min)   0.4 %
SCF iterations                  ...      947.296 sec (=  15.788 min)  99.6 %
                             ****ORCA TERMINATED NORMALLY****
TOTAL RUN TIME: 0 days 0 hours 15 minutes 51 seconds 310 msec
