
                                 *****************
                                 * O   R   C   A *
                                 *****************

           --- An Ab Initio, DFT and Semiempirical electronic structure package ---

                  #######################################################
                  #                        -***-                        #
                  #          Department of theory and spectroscopy      #
                  #               Directorship: Frank Neese             #
                  #        Max Planck Institute fuer Kohlenforschung    #
                  #                Kaiser Wilhelm Platz 1               #
                  #                 D-45470 Muelheim/Ruhr               #
                  #                      Germany                        #
                  #                                                     #
                  #                  All rights reserved                #
                  #                        -***-                        #
                  #######################################################


                         Program Version 4.2.0 -  RELEASE  -


 With contributions from (in alphabetic order):
   Daniel Aravena         : Magnetic Suceptibility
   Michael Atanasov       : Ab Initio Ligand Field Theory (pilot matlab implementation)
   Alexander A. Auer      : GIAO ZORA, VPT2
   Ute Becker             : Parallelization
   Giovanni Bistoni       : ED, misc. LED, open-shell LED, HFLED
   Martin Brehm           : Molecular dynamics
   Dmytro Bykov           : SCF Hessian
   Vijay G. Chilkuri      : MRCI spin determinant printing, contributions to CSF-ICE
   Dipayan Datta          : RHF DLPNO-CCSD density
   Achintya Kumar Dutta   : EOM-CC, STEOM-CC
   Dmitry Ganyushin       : Spin-Orbit,Spin-Spin,Magnetic field MRCI
   Miquel Garcia          : C-PCM Hessian, Gaussian charge scheme
   Yang Guo               : DLPNO-NEVPT2, CIM, IAO-localization
   Andreas Hansen         : Spin unrestricted coupled pair/coupled cluster methods
   Benjamin Helmich-Paris : CASSCF linear response (MC-RPA)
   Lee Huntington         : MR-EOM, pCC
   Robert Izsak           : Overlap fitted RIJCOSX, COSX-SCS-MP3, EOM
   Christian Kollmar      : KDIIS, OOCD, Brueckner-CCSD(T), CCSD density
   Simone Kossmann        : Meta GGA functionals, TD-DFT gradient, OOMP2, MP2 Hessian
   Martin Krupicka        : AUTO-CI
   Lucas Lang             : DCDCAS
   Dagmar Lenk            : GEPOL surface, SMD
   Dimitrios Liakos       : Extrapolation schemes; Compound Job, initial MDCI parallelization
   Dimitrios Manganas     : Further ROCIS development; embedding schemes
   Dimitrios Pantazis     : SARC Basis sets
   Taras Petrenko         : DFT Hessian,TD-DFT gradient, ASA, ECA, R-Raman, ABS, FL, XAS/XES, NRVS
   Peter Pinski           : DLPNO-MP2, DLPNO-MP2 Gradient
   Christoph Reimann      : Effective Core Potentials
   Marius Retegan         : Local ZFS, SOC
   Christoph Riplinger    : Optimizer, TS searches, QM/MM, DLPNO-CCSD(T), (RO)-DLPNO pert. Triples
   Tobias Risthaus        : Range-separated hybrids, TD-DFT gradient, RPA, STAB
   Michael Roemelt        : Original ROCIS implementation
   Masaaki Saitow         : Open-shell DLPNO-CCSD energy and density
   Barbara Sandhoefer     : DKH picture change effects
   Avijit Sen             : IP-ROCIS
   Kantharuban Sivalingam : CASSCF convergence, NEVPT2, FIC-MRCI
   Bernardo de Souza      : ESD, SOC TD-DFT
   Georgi Stoychev        : AutoAux, RI-MP2 NMR
   Willem Van den Heuvel  : Paramagnetic NMR
   Boris Wezisla          : Elementary symmetry handling
   Frank Wennmohs         : Technical directorship


 We gratefully acknowledge several colleagues who have allowed us to
 interface, adapt or use parts of their codes:
   Stefan Grimme, W. Hujo, H. Kruse,             : VdW corrections, initial TS optimization,
                  C. Bannwarth                     DFT functionals, gCP, sTDA/sTD-DF
   Ed Valeev, F. Pavosevic, A. Kumar             : LibInt (2-el integral package), F12 methods
   Garnet Chan, S. Sharma, J. Yang, R. Olivares  : DMRG
   Ulf Ekstrom                                   : XCFun DFT Library
   Mihaly Kallay                                 : mrcc  (arbitrary order and MRCC methods)
   Andreas Klamt, Michael Diedenhofen            : otool_cosmo (COSMO solvation model)
   Jiri Pittner, Ondrej Demel                    : Mk-CCSD
   Frank Weinhold                                : gennbo (NPA and NBO analysis)
   Christopher J. Cramer and Donald G. Truhlar   : smd solvation model
   Lars Goerigk                                  : TD-DFT with DH, B97 family of functionals
   V. Asgeirsson, H. Jonsson                     : NEB implementation
   FAccTs GmbH                                   : IRC, NEB, NEB-TS, Multilevel, MM, QM/MM, CI optimization
   S Lehtola, MJT Oliveira, MAL Marques          : LibXC Library


 Your calculation uses the libint2 library for the computation of 2-el integrals
 For citations please refer to: http://libint.valeyev.net

 Your ORCA version has been built with support for libXC version: 4.2.3
 For citations please refer to: https://tddft.org/programs/libxc/

 This ORCA versions uses:
   CBLAS   interface :  Fast vector & matrix operations
   LAPACKE interface :  Fast linear algebra routines
   SCALAPACK package :  Parallel linear algebra routines


Your calculation utilizes the DFT-NL dispersion correction.
Cite in your paper:
Vydrov, O. A.; Van Voorhis, T. J. Chem. Phys. 2010, 133, 244103
Hujo, W.; Grimme, S. J. Chem. Theory Comput. 2011, 7, 3866 
   

----- Orbital basis set information -----
Your calculation utilizes the basis: aug-cc-pVTZ 
    H, B-Ne : Obtained from the ccRepo (grant-hill.group.shef.ac.uk/ccrepo) Feb. 2017
              R. A. Kendall, T. H. Dunning, Jr., R. J. Harrison, J. Chem. Phys. 96, 6796 (1992)
         He : Obtained from the ccRepo (grant-hill.group.shef.ac.uk/ccrepo) Feb. 2017
              D. E. Woon, T. H. Dunning, Jr., J. Chem. Phys. 100, 2975 (1994)
  Li-Be, Na : Obtained from the ccRepo (grant-hill.group.shef.ac.uk/ccrepo) Feb. 2017
              B. P. Prascher, D. E. Woon, K. A. Peterson, T. H. Dunning, Jr., A. K. Wilson, Theor. Chem. Acc. 128, 69 (2011)
         Mg : Obtained from the Peterson Research Group Website (tyr0.chem.wsu.edu/~kipeters) Feb. 2017
              B. P. Prascher, D. E. Woon, K. A. Peterson, T. H. Dunning, Jr., A. K. Wilson, Theor. Chem. Acc. 128, 69 (2011)
      Al-Ar : Obtained from the ccRepo (grant-hill.group.shef.ac.uk/ccrepo) Feb. 2017
              D. E. Woon, T. H. Dunning, Jr., J. Chem. Phys. 98, 1358 (1993)
      Sc-Zn : Obtained from the ccRepo (grant-hill.group.shef.ac.uk/ccrepo) Feb. 2017
              N. B. Balabanov, K. A. Peterson, J. Chem. Phys. 123, 064107 (2005)
              N. B. Balabanov, K. A. Peterson, J. Chem. Phys. 125, 074110 (2006)
      Ga-Kr : Obtained from the ccRepo (grant-hill.group.shef.ac.uk/ccrepo) Feb. 2017
              A. K. Wilson, D. E. Woon, K. A. Peterson, T. H. Dunning, Jr., J. Chem. Phys. 110, 7667 (1999)
     Ag, Au : Obtained from the Peterson Research Group Website (tyr0.chem.wsu.edu/~kipeters) Feb. 2017
              K. A. Peterson, C. Puzzarini, Theor. Chem. Acc. 114, 283 (2005)

----- AuxJK basis set information -----
Your calculation utilizes the auxiliary basis: def2/JK
   H-Ba, Hf-Rn: F. Weigend, J. Comput. Chem. 29, 167 (2008).

================================================================================
                                        WARNINGS
                       Please study these warnings very carefully!
================================================================================


WARNING: your system is open-shell and RHF/RKS was chosen
  ===> : WILL SWITCH to UHF/UKS


INFO   : the flag for use of LIBINT has been found!

================================================================================
                                       INPUT FILE
================================================================================
NAME = 17_VO.in
|  1> #
|  2> # 17_VO wb97m-v/aug-cc-pvtz
|  3> #
|  4> ! wb97m-v aug-cc-pvtz def2/jk grid4 nofinalgrid
|  5> 
|  6> *xyz 0 4
|  7>   V   0.00000000000000      0.00000000000000      0.20415600493149
|  8>   O   0.00000000000000      0.00000000000000      1.79584399506851
|  9> *
| 10> 
| 11> %pal
| 12> nprocs 24
| 13> end
| 14> 
| 15> 
| 16>                          ****END OF INPUT****
================================================================================

                       ****************************
                       * Single Point Calculation *
                       ****************************

---------------------------------
CARTESIAN COORDINATES (ANGSTROEM)
---------------------------------
  V      0.000000    0.000000    0.204156
  O      0.000000    0.000000    1.795844

----------------------------
CARTESIAN COORDINATES (A.U.)
----------------------------
  NO LB      ZA    FRAG     MASS         X           Y           Z
   0 V    23.0000    0    50.940    0.000000    0.000000    0.385799
   1 O     8.0000    0    15.999    0.000000    0.000000    3.393653

--------------------------------
INTERNAL COORDINATES (ANGSTROEM)
--------------------------------
 V      0   0   0     0.000000000000     0.00000000     0.00000000
 O      1   0   0     1.591687990137     0.00000000     0.00000000

---------------------------
INTERNAL COORDINATES (A.U.)
---------------------------
 V      0   0   0     0.000000000000     0.00000000     0.00000000
 O      1   0   0     3.007854392011     0.00000000     0.00000000

---------------------
BASIS SET INFORMATION
---------------------
There are 2 groups of distinct atoms

 Group   1 Type V   : 116s77p23d3f2g contracted to 8s7p5d3f2g pattern {19191919191911/151515151511/77711/111/11}
 Group   2 Type O   : 19s6p3d2f contracted to 5s4p3d2f pattern {88111/3111/111/11}

Atom   0V    basis set group =>   1
Atom   1O    basis set group =>   2
----------------------------------
AUXILIARY/JK BASIS SET INFORMATION
----------------------------------
There are 2 groups of distinct atoms

 Group   1 Type V   : 19s14p12d10f7g3h1i contracted to 16s13p11d9f5g3h1i pattern {4111111111111111/2111111111111/21111111111/211111111/31111/111/1}
 Group   2 Type O   : 14s10p6d2f1g contracted to 10s8p4d2f1g pattern {5111111111/31111111/3111/11/1}

Atom   0V    basis set group =>   1
Atom   1O    basis set group =>   2


           ************************************************************
           *        Program running with 24 parallel MPI-processes    *
           *              working on a common directory               *
           ************************************************************
------------------------------------------------------------------------------
                           ORCA GTO INTEGRAL CALCULATION
------------------------------------------------------------------------------

                         BASIS SET STATISTICS AND STARTUP INFO

 # of primitive gaussian shells          ...  251
 # of primitive gaussian functions       ...  567
 # of contracted shells                  ...   39
 # of contracted basis functions         ...  139
 Highest angular momentum                ...    4
 Maximum contraction depth               ...   19
 Integral package used                   ... LIBINT
 Integral threshhold            Thresh   ...  1.000e-10
 Primitive cut-off              TCut     ...  1.000e-11


------------------------------ INTEGRAL EVALUATION ----------------------------


 * One electron integrals 
 Pre-screening matrix                    ... done
 Shell pair data                         ... done (   0.001 sec)



           ************************************************************
           *        Program running with 24 parallel MPI-processes    *
           *              working on a common directory               *
           ************************************************************
-------------------------------------------------------------------------------
                                 ORCA SCF
-------------------------------------------------------------------------------

------------
SCF SETTINGS
------------
Hamiltonian:
 Density Functional     Method          .... DFT(GTOs)
 Exchange Functional    Exchange        .... WB97M-V
 Correlation Functional Correlation     .... WB97M-V
 Gradients option       PostSCFGGA      .... off
 Hybrid DFT is turned on
   Fraction HF Exchange ScalHFX         ....  0.150000
   Scaling of DF-GGA-X  ScalDFX         ....  0.000000
   Scaling of DF-GGA-C  ScalDFC         ....  1.000000
   Scaling of DF-LDA-C  ScalLDAC        ....  1.000000
   Perturbative correction              ....  0.000000
   Density functional embedding theory  .... OFF
 Long-range corrected/Screened/Range-Separated Hybrid DFT is turned on
   Amount of maximum screened exact exchange              ....  0.850000
   Range separation parameter mu (erf(mu*r12)/r12)        ....  0.300000
   NL short-range parameter             ....  6.000000
   NL long-range parameter              ....  0.010000


General Settings:
 Integral files         IntName         .... 17_VO
 Hartree-Fock type      HFTyp           .... UHF
 Total Charge           Charge          ....    0
 Multiplicity           Mult            ....    4
 Number of Electrons    NEL             ....   31
 Basis Dimension        Dim             ....  139
 Nuclear Repulsion      ENuc            ....     61.1731739704 Eh

Convergence Acceleration:
 DIIS                   CNVDIIS         .... on
   Start iteration      DIISMaxIt       ....    12
   Startup error        DIISStart       ....  0.200000
   # of expansion vecs  DIISMaxEq       ....     5
   Bias factor          DIISBfac        ....   1.050
   Max. coefficient     DIISMaxC        ....  10.000
 Newton-Raphson         CNVNR           .... off
 SOSCF                  CNVSOSCF        .... off
 Level Shifting         CNVShift        .... on
   Level shift para.    LevelShift      ....    0.2500
   Turn off err/grad.   ShiftErr        ....    0.0010
 Zerner damping         CNVZerner       .... off
 Static damping         CNVDamp         .... on
   Fraction old density DampFac         ....    0.7000
   Max. Damping (<1)    DampMax         ....    0.9800
   Min. Damping (>=0)   DampMin         ....    0.0000
   Turn off err/grad.   DampErr         ....    0.1000
 Fernandez-Rico         CNVRico         .... off

SCF Procedure:
 Maximum # iterations   MaxIter         ....   125
 SCF integral mode      SCFMode         .... Direct
   Integral package                     .... LIBINT
 Reset frequency        DirectResetFreq ....    20
 Integral Threshold     Thresh          ....  1.000e-10 Eh
 Primitive CutOff       TCut            ....  1.000e-11 Eh

Convergence Tolerance:
 Convergence Check Mode ConvCheckMode   .... Total+1el-Energy
 Convergence forced     ConvForced      .... 0
 Energy Change          TolE            ....  1.000e-06 Eh
 1-El. energy change                    ....  1.000e-03 Eh
 DIIS Error             TolErr          ....  1.000e-06


Diagonalization of the overlap matrix:
Smallest eigenvalue                        ... 3.432e-05
Time for diagonalization                   ...    0.005 sec
Threshold for overlap eigenvalues          ... 1.000e-08
Number of eigenvalues below threshold      ... 0
Time for construction of square roots      ...    0.003 sec
Total time needed                          ...    0.008 sec

-------------------
DFT GRID GENERATION
-------------------

General Integration Accuracy     IntAcc      ...  4.670
Radial Grid Type                 RadialGrid  ... Gauss-Chebyshev
Angular Grid (max. acc.)         AngularGrid ... Lebedev-302
Angular grid pruning method      GridPruning ... 3 (G Style)
Weight generation scheme         WeightScheme... Becke
Basis function cutoff            BFCut       ...    1.0000e-10
Integration weight cutoff        WCut        ...    1.0000e-14
Grids for H and He will be reduced by one unit

# of grid points (after initial pruning)     ...  15876 (   0.0 sec)
# of grid points (after weights+screening)   ...  15834 (   0.0 sec)
nearest neighbour list constructed           ...    0.0 sec
Grid point re-assignment to atoms done       ...    0.0 sec
Grid point division into batches done        ...    0.1 sec
Reduced shell lists constructed in    0.1 sec

Total number of grid points                  ...    15834
Total number of batches                      ...      248
Average number of points per batch           ...       63
Average number of grid points per atom       ...     7917
Average number of shells per batch           ...    17.33 (44.44%)
Average number of basis functions per batch  ...    45.67 (32.85%)
Average number of large shells per batch     ...    10.92 (62.98%)
Average number of large basis fcns per batch ...    28.08 (61.50%)
Maximum spatial batch extension              ...  28.57, 31.41, 18.14 au
Average spatial batch extension              ...   0.89,  0.95,  0.67 au

Time for grid setup =    0.149 sec

------------------------------
INITIAL GUESS: MODEL POTENTIAL
------------------------------
Loading Hartree-Fock densities                     ... done
Calculating cut-offs                               ... done
Setting up the integral package                    ... done
Initializing the effective Hamiltonian             ... done
Starting the Coulomb interaction                   ... done (   0.0 sec)
Reading the grid                                   ... done
Mapping shells                                     ... done
Starting the XC term evaluation                    ... done (   0.0 sec)
  promolecular density results
     # of electrons  =     30.999998472
     EX              =    -52.060157362
     EC              =     -1.220108770
     EX+EC           =    -53.280266132
Transforming the Hamiltonian                       ... done (   0.0 sec)
Diagonalizing the Hamiltonian                      ... done (   0.0 sec)
Back transforming the eigenvectors                 ... done (   0.0 sec)
Now organizing SCF variables                       ... done
                      ------------------
                      INITIAL GUESS DONE (   0.2 sec)
                      ------------------
--------------
SCF ITERATIONS
--------------
ITER       Energy         Delta-E        Max-DP      RMS-DP      [F,P]     Damp
               ***  Starting incremental Fock matrix formation  ***
  0  -1018.9934316047   0.00000000000028.86985867  0.34145140  0.4761180 0.7000
  1  -1018.2614070677   0.732024537065 8.65686440  0.10239890  0.0742020 0.7000
                               ***Turning on DIIS***
  2  -1018.6129377023  -0.35153063458820.22227308  0.23925707  0.0634182 0.0000
  3  -1019.1804434519  -0.567505749666 0.00459807  0.00011636  0.2377603 0.7000
  4  -1019.1742762043   0.006167247678 0.00412821  0.00009425  0.2475467 0.7000
  5  -1019.1684002997   0.005875904532 0.00320607  0.00006835  0.2563194 0.7000
  6  -1019.1640343951   0.004365904639 0.00196454  0.00004643  0.2626848 0.7000
  7  -1019.1612594933   0.00277490174968.69275588  0.80524232  0.2667609 0.7000
  8  -1018.6832119611   0.47804753223668.64436900  0.80473184  0.0673892 0.0000
  9  -1019.2324886023  -0.549276641201 0.01896196  0.00054035  0.1604638 0.7000
 10  -1019.2313651936   0.001123408700 0.01704733  0.00045665  0.1615289 0.7000
 11  -1019.2299763897   0.001388803879 0.01270781  0.00033740  0.1631712 0.7000
 12  -1019.2283688152   0.001607574540 0.01166282  0.00024910  0.1655732 0.7000
 13  -1019.2258761566   0.002492658547 0.03824824  0.00093595  0.1700745 0.7000
 14  -1019.2466862166  -0.020810059972 0.09626116  0.00182993  0.0689207 0.0000
 15  -1019.2671096286  -0.020423412006 0.10161217  0.00199589  0.0353173 0.0000
 16  -1019.2696246789  -0.002515050288 0.02322236  0.00041435  0.0135038 0.0000
 17  -1019.2702024367  -0.000577757808 0.01870075  0.00028127  0.0064786 0.0000
 18  -1019.2706142516  -0.000411814877 0.02843267  0.00027376  0.0056456 0.0000
 19  -1019.2709299882  -0.00031573656869.18161210  0.85895027  0.0042447 0.0000
               *** Restarting incremental Fock matrix formation ***
                                   *** Resetting DIIS ***
 20  -1018.7440120566   0.52691793159620.73987995  0.25757213  0.2726068 0.7000
 21  -1018.9389969473  -0.19498489069748.36507406  0.60085531  0.0361068 0.0000
 22  -1019.1845624534  -0.245565506116 0.01551194  0.00032299  0.2533696 0.7000
 23  -1019.1991950356  -0.014632582210 0.01363338  0.00029445  0.2272727 0.7000
 24  -1019.2126284992  -0.013433463668 0.01209112  0.00026250  0.2014599 0.7000
 25  -1019.2232213311  -0.010592831872 0.00745964  0.00013445  0.1797939 0.7000
 26  -1019.2311597134  -0.007938382240 0.03486498  0.00072998  0.1615304 0.7000
 27  -1019.2456550781  -0.014495364769 9.66967159  0.11718482  0.1161200 0.7000
 28  -1019.1440606098   0.101594468348 9.68481565  0.11725951  0.0033398 0.0000
 29  -1019.2656520182  -0.121591408387 0.00681009  0.00013524  0.0571652 0.0000
 30  -1019.2650216944   0.000630323739 0.00149847  0.00003829  0.0608315 0.0000
 31  -1019.2644626749   0.000559019547 0.00313581  0.00007381  0.0636674 0.0000
 32  -1019.2635517160   0.000910958867 0.00372636  0.00006714  0.0681259 0.0000
 33  -1019.2623704540   0.001181261987 0.02991835  0.00078143  0.0732310 0.0000
 34  -1019.2709115699  -0.008541115903 0.03972947  0.00092089  0.0080013 0.0000
 35  -1019.2709956601  -0.000084090160 0.02263824  0.00046733  0.0075980 0.0000
 36  -1019.2710234244  -0.000027764270 0.02599733  0.00027461  0.0037763 0.0000
 37  -1019.2710937649  -0.00007034054633.91684127  0.34085347  0.0031398 0.0000
 38  -1018.7406904523   0.530403312561 0.05920464  0.00056999  0.2703518 0.7000
 39  -1018.7405329439   0.000157508437 0.80189391  0.00758253  0.2701165 0.7000
               *** Restarting incremental Fock matrix formation ***
                                   *** Resetting DIIS ***
 40  -1018.7397949668   0.00073797708010.41610554  0.10451593  0.2699168 0.7000
 41  -1018.9337891910  -0.19399422413624.27981007  0.24373815  0.0347492 0.0000
 42  -1019.1834437309  -0.249654539897 0.01547970  0.00033253  0.2529584 0.7000
 43  -1019.1981793473  -0.014735616453 0.01377517  0.00030228  0.2269241 0.7000
 44  -1019.2117254946  -0.013546147320 0.01224113  0.00026770  0.2011724 0.7000
 45  -1019.2224314409  -0.010705946217 1.55428704  0.02744364  0.1795487 0.7000
 46  -1019.1420906790   0.080340761822 1.61540117  0.02777072  0.0812339 0.0000
 47  -1019.2475552348  -0.105464555772 0.01651453  0.00028243  0.1202687 0.7000
 48  -1019.2505149660  -0.002959731169 0.01198356  0.00020609  0.1103313 0.7000
 49  -1019.2535373273  -0.003022361304240.36405316  2.74496841  0.0992878 0.0000
 50  -1018.7551794105   0.49835791680138.97028747  0.42618579  0.2015737 0.7000
 51  -1018.7726168004  -0.01743738992322.22368739  0.24233449  0.1922056 0.7000
 52  -1018.7835515003  -0.01093469990222.16533987  0.24690781  0.1853141 0.7000
 53  -1018.7945623986  -0.01101089829719.55047111  0.21970266  0.1795433 0.7000
 54  -1018.8045832097  -0.01002081112841.23286543  0.48416703  0.1747654 0.7000
 55  -1018.9600787395  -0.15549552973596.18876079  1.12993320  0.0161977 0.0000
 56  -1019.2020417960  -0.241963056498 0.01638551  0.00023435  0.2102899 0.7000
 57  -1019.2085942719  -0.006552475894 0.01631132  0.00023481  0.1976313 0.7000
 58  -1019.2147944085  -0.006200136673 0.01420634  0.00020136  0.1852326 0.7000
 59  -1019.2196616256  -0.004867217113 0.01511227  0.00019234  0.1751502 0.7000
               *** Restarting incremental Fock matrix formation ***
                                   *** Resetting DIIS ***
 60  -1019.2230266681  -0.003365042502 0.04291518  0.00082141  0.1675376 0.7000
 61  -1019.2430355843  -0.020008916187 0.09444663  0.00170013  0.0576875 0.0000
 62  -1019.2657170559  -0.022681471589 0.09838133  0.00186823  0.0471520 0.0000
 63  -1019.2691012984  -0.003384242534 0.02920547  0.00041474  0.0176409 0.0000
 64  -1019.2699321374  -0.000830838996 0.02141879  0.00032100  0.0057682 0.0000
 65  -1019.2704532402  -0.000521102712 0.03125855  0.00031193  0.0053776 0.0000
 66  -1019.2708441495  -0.00039090938133.91778823  0.50096331  0.0040050 0.0000
 67  -1018.7573951196   0.513449029963 0.59048588  0.00702945  0.2706084 0.7000
 68  -1018.7579603605  -0.000565240947 0.10076730  0.00179342  0.2698529 0.7000
 69  -1018.7580297065  -0.000069345964 0.16951823  0.00259703  0.2692486 0.7000
 70  -1018.7580845336  -0.000054827143 4.53004217  0.05450257  0.2689500 0.7000
 71  -1018.7608546399  -0.002770106254 8.55141978  0.13178244  0.2693410 0.7000
 72  -1018.9501080978  -0.18925345795619.93767643  0.30742198  0.0348193 0.0000
 73  -1019.1868579861  -0.236749888251 0.01741256  0.00037309  0.2493982 0.7000
 74  -1019.2011564236  -0.014298437544 0.01366247  0.00030343  0.2240726 0.7000
 75  -1019.2142747916  -0.013118367950 0.00957667  0.00022414  0.1988654 0.7000
 76  -1019.2245359375  -0.010261145904 0.00700575  0.00011355  0.1774942 0.7000
 77  -1019.2321766985  -0.007640761024 0.03277028  0.00067791  0.1594604 0.7000
 78  -1019.2462904061  -0.014113707598 0.01944321  0.00033741  0.1147034 0.7000
 79  -1019.2558375760  -0.009547169911 0.03175183  0.00060457  0.0767857 0.0000
               *** Restarting incremental Fock matrix formation ***
                                   *** Resetting DIIS ***
 80  -1019.2706528991  -0.014815323056 0.03448816  0.00040588  0.0099377 0.0000
 81  -1019.2707129066  -0.000060007497 0.01042376  0.00019228  0.0118778 0.0000
 82  -1019.2709345008  -0.000221594271 0.03165096  0.00030066  0.0033084 0.0000
 83  -1019.2710737003  -0.000139199453 0.02990795  0.00027189  0.0030292 0.0000
 84  -1019.2711603835  -0.000086683222 0.03562178  0.00032389  0.0022960 0.0000
 85  -1019.2712336146  -0.000073231115 0.01734686  0.00016363  0.0017938 0.0000
 86  -1019.2712366779  -0.000003063227 0.03132849  0.00030435  0.0013835 0.0000
 87  -1019.2712397566  -0.000003078748 0.01531597  0.00017895  0.0010770 0.0000
 88  -1019.2712219605   0.000017796077 0.01789358  0.00020375  0.0007123 0.0000
 89  -1019.2711410200   0.000080940542 0.00459265  0.00007543  0.0001761 0.0000
 90  -1019.2711302383   0.000010781728 0.00173973  0.00002606  0.0005660 0.0000
 91  -1019.2711285828   0.000001655423 0.00173456  0.00002845  0.0002129 0.0000
 92  -1019.2711297502  -0.000001167330 0.00081835  0.00001429  0.0002013 0.0000
 93  -1019.2711342116  -0.000004461447 0.00089070  0.00001591  0.0001290 0.0000
 94  -1019.2711350341  -0.000000822458 0.00037489  0.00000516  0.0000732 0.0000
 95  -1019.2711367100  -0.000001675918 0.00037612  0.00000443  0.0000453 0.0000
                 **** Energy Check signals convergence ****

               *****************************************************
               *                     SUCCESS                       *
               *           SCF CONVERGED AFTER  96 CYCLES          *
               *****************************************************


Setting up the DFT-NL grid :

General Integration Accuracy     IntAcc      ...  4.340
Radial Grid Type                 RadialGrid  ... Gauss-Chebyshev
Angular Grid (max. acc.)         AngularGrid ... Lebedev-110
Angular grid pruning method      GridPruning ... 3 (G Style)
Weight generation scheme         WeightScheme... Becke
Basis function cutoff            BFCut       ...    1.0000e-10
Integration weight cutoff        WCut        ...    1.0000e-14
Grids for H and He will be reduced by one unit

# of grid points (after initial pruning)     ...   4688 (   0.0 sec)
# of grid points (after weights+screening)   ...   4661 (   0.0 sec)
nearest neighbour list constructed           ...    0.0 sec
Grid point re-assignment to atoms done       ...    0.0 sec
Grid point division into batches done        ...    0.0 sec
Reduced shell lists constructed in    0.0 sec

Total number of grid points                  ...     4661
Total number of batches                      ...       73
Average number of points per batch           ...       63
Average number of grid points per atom       ...     2330
Average number of shells per batch           ...    22.40 (57.44%)
Average number of basis functions per batch  ...    72.00 (51.80%)
Average number of large shells per batch     ...    18.00 (80.36%)
Average number of large basis fcns per batch ...    58.00 (80.56%)
Maximum spatial batch extension              ...  19.25, 28.73, 15.77 au
Average spatial batch extension              ...   1.01,  1.32,  0.86 au

Final grid set up in    0.0 sec

-------------------------------------------------------------------------------
                         DFT-NL dispersion correction                          
-------------------------------------------------------------------------------

SC Energy -1019.271137421 
NL    Energy 0.129356210 
SC+NL Energy -1019.141781212 
NL done in    0.0 sec
-------------------------------------------------------------------------------

----------------
TOTAL SCF ENERGY
----------------

Total Energy       :        -1019.14178121 Eh          -27732.25775 eV

Components:
Nuclear Repulsion  :           61.17317397 Eh            1664.60669 eV
Electronic Energy  :        -1080.31495518 Eh          -29396.86444 eV
One Electron Energy:        -1521.53560760 Eh          -41403.08878 eV
Two Electron Energy:          441.22065241 Eh           12006.22434 eV

Virial components:
Potential Energy   :        -2036.75027575 Eh          -55422.79264 eV
Kinetic Energy     :         1017.60849454 Eh           27690.53490 eV
Virial Ratio       :            2.00150675


DFT components:
N(Alpha)           :       16.999995714540 electrons
N(Beta)            :       13.999994323119 electrons
N(Total)           :       30.999990037659 electrons
E(X)               :      -40.397002965088 Eh       
E(C)               :       -1.404426564257 Eh       
NL Energy, E(C,NL) :        0.129356209590 Eh       
E(XC)              :      -41.672073319755 Eh       
DFET-embed. en.    :        0.000000000000 Eh       

---------------
SCF CONVERGENCE
---------------

  Last Energy change         ...   -7.1146e-07  Tolerance :   1.0000e-06
  Last MAX-Density change    ...    2.0950e-04  Tolerance :   1.0000e-05
  Last RMS-Density change    ...    3.3797e-06  Tolerance :   1.0000e-06
  Last DIIS Error            ...    1.2654e-05  Tolerance :   1.0000e-06

             **** THE GBW FILE WAS UPDATED (17_VO.gbw) ****
             **** DENSITY FILE WAS UPDATED (17_VO.scfp) ****
             **** ENERGY FILE WAS UPDATED (17_VO.en.tmp) ****
----------------------
UHF SPIN CONTAMINATION
----------------------

Warning: in a DFT calculation there is little theoretical justification to 
         calculate <S**2> as in Hartree-Fock theory. We will do it anyways
         but you should keep in mind that the values have only limited relevance

Expectation value of <S**2>     :     3.792248
Ideal value S*(S+1) for S=1.5   :     3.750000
Deviation                       :     0.042248

             **** THE GBW FILE WAS UPDATED (17_VO.gbw) ****
             **** DENSITY FILE WAS UPDATED (17_VO.scfp) ****
----------------
ORBITAL ENERGIES
----------------
                 SPIN UP ORBITALS
  NO   OCC          E(Eh)            E(eV) 
   0   1.0000    -197.320768     -5369.3711 
   1   1.0000     -22.475054      -611.5773 
   2   1.0000     -19.319515      -525.7107 
   3   1.0000     -18.902162      -514.3540 
   4   1.0000     -18.893808      -514.1266 
   5   1.0000     -18.893807      -514.1266 
   6   1.0000      -2.802645       -76.2639 
   7   1.0000      -1.834321       -49.9144 
   8   1.0000      -1.815754       -49.4092 
   9   1.0000      -1.815752       -49.4091 
  10   1.0000      -0.993075       -27.0229 
  11   1.0000      -0.446835       -12.1590 
  12   1.0000      -0.426614       -11.6088 
  13   1.0000      -0.426608       -11.6086 
  14   1.0000      -0.338727        -9.2172 
  15   1.0000      -0.338727        -9.2172 
  16   1.0000      -0.270615        -7.3638 
  17   0.0000      -0.010824        -0.2945 
  18   0.0000      -0.010824        -0.2945 
  19   0.0000      -0.008848        -0.2408 
  20   0.0000       0.016561         0.4506 
  21   0.0000       0.025585         0.6962 
  22   0.0000       0.025585         0.6962 
  23   0.0000       0.026320         0.7162 
  24   0.0000       0.052076         1.4171 
  25   0.0000       0.052077         1.4171 
  26   0.0000       0.053590         1.4583 
  27   0.0000       0.053590         1.4583 
  28   0.0000       0.058771         1.5992 
  29   0.0000       0.078684         2.1411 
  30   0.0000       0.078684         2.1411 
  31   0.0000       0.097065         2.6413 
  32   0.0000       0.123314         3.3556 
  33   0.0000       0.184981         5.0336 
  34   0.0000       0.184981         5.0336 
  35   0.0000       0.221423         6.0252 
  36   0.0000       0.223197         6.0735 
  37   0.0000       0.223198         6.0735 
  38   0.0000       0.224434         6.1072 
  39   0.0000       0.224440         6.1073 
  40   0.0000       0.237843         6.4720 
  41   0.0000       0.249994         6.8027 
  42   0.0000       0.249994         6.8027 
  43   0.0000       0.308432         8.3928 
  44   0.0000       0.442059        12.0290 
  45   0.0000       0.442064        12.0292 
  46   0.0000       0.448697        12.2097 
  47   0.0000       0.448697        12.2097 
  48   0.0000       0.456260        12.4155 
  49   0.0000       0.527887        14.3645 
  50   0.0000       0.527887        14.3645 
  51   0.0000       0.528556        14.3827 
  52   0.0000       0.629878        17.1398 
  53   0.0000       0.638277        17.3684 
  54   0.0000       0.638277        17.3684 
  55   0.0000       0.726035        19.7564 
  56   0.0000       0.726037        19.7565 
  57   0.0000       0.783706        21.3257 
  58   0.0000       0.807169        21.9642 
  59   0.0000       0.807169        21.9642 
  60   0.0000       0.827739        22.5239 
  61   0.0000       0.827740        22.5240 
  62   0.0000       0.843423        22.9507 
  63   0.0000       0.843424        22.9507 
  64   0.0000       0.900784        24.5116 
  65   0.0000       1.204650        32.7802 
  66   0.0000       1.227966        33.4146 
  67   0.0000       1.227968        33.4147 
  68   0.0000       1.404903        38.2294 
  69   0.0000       1.404904        38.2294 
  70   0.0000       1.409449        38.3531 
  71   0.0000       1.422332        38.7036 
  72   0.0000       1.422332        38.7036 
  73   0.0000       1.556054        42.3424 
  74   0.0000       1.556054        42.3424 
  75   0.0000       1.637552        44.5601 
  76   0.0000       1.637552        44.5601 
  77   0.0000       1.648641        44.8618 
  78   0.0000       1.685357        45.8609 
  79   0.0000       1.685357        45.8609 
  80   0.0000       1.784997        48.5722 
  81   0.0000       1.784998        48.5723 
  82   0.0000       1.862683        50.6862 
  83   0.0000       1.862684        50.6862 
  84   0.0000       2.014708        54.8230 
  85   0.0000       2.063148        56.1411 
  86   0.0000       2.132817        58.0369 
  87   0.0000       2.132817        58.0369 
  88   0.0000       2.176111        59.2150 
  89   0.0000       2.176135        59.2156 
  90   0.0000       2.261729        61.5448 
  91   0.0000       2.261730        61.5448 
  92   0.0000       2.445580        66.5476 
  93   0.0000       2.455882        66.8279 
  94   0.0000       2.455883        66.8280 
  95   0.0000       2.565688        69.8159 
  96   0.0000       2.587189        70.4010 
  97   0.0000       2.587192        70.4011 
  98   0.0000       2.669985        72.6540 
  99   0.0000       2.669986        72.6540 
 100   0.0000       2.730780        74.3083 
 101   0.0000       2.876602        78.2763 
 102   0.0000       2.876602        78.2763 
 103   0.0000       3.063257        83.3555 
 104   0.0000       3.421713        93.1095 
 105   0.0000       3.421714        93.1096 
 106   0.0000       3.732875       101.5767 
 107   0.0000       4.228173       115.0544 
 108   0.0000       4.228180       115.0546 
 109   0.0000       4.930840       134.1750 
 110   0.0000       4.930840       134.1750 
 111   0.0000       4.959498       134.9548 
 112   0.0000       4.987429       135.7148 
 113   0.0000       4.987431       135.7149 
 114   0.0000       5.220343       142.0528 
 115   0.0000       5.220344       142.0528 
 116   0.0000       5.246181       142.7558 
 117   0.0000       5.246192       142.7561 
 118   0.0000       5.260962       143.1581 
 119   0.0000       5.260962       143.1581 
 120   0.0000       5.296593       144.1276 
 121   0.0000       5.296594       144.1277 
 122   0.0000       5.312091       144.5494 
 123   0.0000       5.312092       144.5494 
 124   0.0000       5.421581       147.5287 
 125   0.0000       5.510004       149.9348 
 126   0.0000       6.225366       169.4008 
 127   0.0000       6.225366       169.4008 
 128   0.0000       6.373580       173.4339 
 129   0.0000       6.373636       173.4354 
 130   0.0000       6.622937       180.2193 
 131   0.0000       6.622941       180.2194 
 132   0.0000       6.759910       183.9465 
 133   0.0000       6.759945       183.9475 
 134   0.0000       6.944354       188.9655 
 135   0.0000       7.162356       194.8976 
 136   0.0000       7.162363       194.8978 
 137   0.0000       7.404944       201.4988 
 138   0.0000      11.917869       324.3017 

                 SPIN DOWN ORBITALS
  NO   OCC          E(Eh)            E(eV) 
   0   1.0000    -197.319466     -5369.3356 
   1   1.0000     -22.439415      -610.6075 
   2   1.0000     -19.326405      -525.8982 
   3   1.0000     -18.887901      -513.9659 
   4   1.0000     -18.858087      -513.1546 
   5   1.0000     -18.858085      -513.1546 
   6   1.0000      -2.714733       -73.8716 
   7   1.0000      -1.779666       -48.4272 
   8   1.0000      -1.695243       -46.1299 
   9   1.0000      -1.695237       -46.1297 
  10   1.0000      -1.005446       -27.3596 
  11   1.0000      -0.439832       -11.9684 
  12   1.0000      -0.433168       -11.7871 
  13   1.0000      -0.433160       -11.7869 
  14   0.0000      -0.242502        -6.5988 
  15   0.0000      -0.215310        -5.8589 
  16   0.0000      -0.215301        -5.8586 
  17   0.0000      -0.101061        -2.7500 
  18   0.0000      -0.091457        -2.4887 
  19   0.0000      -0.090177        -2.4538 
  20   0.0000      -0.042582        -1.1587 
  21   0.0000      -0.020625        -0.5612 
  22   0.0000      -0.020596        -0.5604 
  23   0.0000      -0.002603        -0.0708 
  24   0.0000      -0.002585        -0.0703 
  25   0.0000       0.006481         0.1763 
  26   0.0000       0.019721         0.5366 
  27   0.0000       0.043729         1.1899 
  28   0.0000       0.043861         1.1935 
  29   0.0000       0.045346         1.2339 
  30   0.0000       0.066012         1.7963 
  31   0.0000       0.066029         1.7967 
  32   0.0000       0.091366         2.4862 
  33   0.0000       0.129477         3.5232 
  34   0.0000       0.134512         3.6603 
  35   0.0000       0.135182         3.6785 
  36   0.0000       0.146899         3.9973 
  37   0.0000       0.146904         3.9975 
  38   0.0000       0.165466         4.5026 
  39   0.0000       0.165469         4.5026 
  40   0.0000       0.204280         5.5588 
  41   0.0000       0.204284         5.5589 
  42   0.0000       0.219041         5.9604 
  43   0.0000       0.295789         8.0488 
  44   0.0000       0.346913         9.4400 
  45   0.0000       0.346918         9.4401 
  46   0.0000       0.389379        10.5955 
  47   0.0000       0.392987        10.6937 
  48   0.0000       0.393827        10.7166 
  49   0.0000       0.440857        11.9963 
  50   0.0000       0.440862        11.9965 
  51   0.0000       0.491678        13.3792 
  52   0.0000       0.608050        16.5459 
  53   0.0000       0.609367        16.5817 
  54   0.0000       0.609369        16.5818 
  55   0.0000       0.728326        19.8188 
  56   0.0000       0.728482        19.8230 
  57   0.0000       0.768110        20.9013 
  58   0.0000       0.805762        21.9259 
  59   0.0000       0.805766        21.9260 
  60   0.0000       0.807669        21.9778 
  61   0.0000       0.808353        21.9964 
  62   0.0000       0.830424        22.5970 
  63   0.0000       0.830425        22.5970 
  64   0.0000       0.886832        24.1319 
  65   0.0000       1.192339        32.4452 
  66   0.0000       1.201444        32.6930 
  67   0.0000       1.201446        32.6930 
  68   0.0000       1.391653        37.8688 
  69   0.0000       1.415700        38.5232 
  70   0.0000       1.416572        38.5469 
  71   0.0000       1.455767        39.6134 
  72   0.0000       1.455768        39.6135 
  73   0.0000       1.569997        42.7218 
  74   0.0000       1.570000        42.7219 
  75   0.0000       1.639732        44.6194 
  76   0.0000       1.647050        44.8185 
  77   0.0000       1.647052        44.8186 
  78   0.0000       1.688183        45.9378 
  79   0.0000       1.695216        46.1292 
  80   0.0000       1.783614        48.5346 
  81   0.0000       1.783808        48.5399 
  82   0.0000       1.859884        50.6100 
  83   0.0000       1.859884        50.6100 
  84   0.0000       2.014022        54.8043 
  85   0.0000       2.082901        56.6786 
  86   0.0000       2.130440        57.9722 
  87   0.0000       2.130440        57.9722 
  88   0.0000       2.166219        58.9458 
  89   0.0000       2.166543        58.9546 
  90   0.0000       2.304627        62.7121 
  91   0.0000       2.304628        62.7121 
  92   0.0000       2.459034        66.9137 
  93   0.0000       2.467540        67.1452 
  94   0.0000       2.467543        67.1453 
  95   0.0000       2.563521        69.7570 
  96   0.0000       2.589999        70.4775 
  97   0.0000       2.590059        70.4791 
  98   0.0000       2.680345        72.9359 
  99   0.0000       2.680347        72.9359 
 100   0.0000       2.725204        74.1566 
 101   0.0000       2.964151        80.6587 
 102   0.0000       2.964738        80.6746 
 103   0.0000       3.114007        84.7364 
 104   0.0000       3.444098        93.7187 
 105   0.0000       3.444100        93.7187 
 106   0.0000       3.743212       101.8580 
 107   0.0000       4.218421       114.7891 
 108   0.0000       4.218426       114.7892 
 109   0.0000       4.979824       135.5079 
 110   0.0000       5.044204       137.2598 
 111   0.0000       5.044205       137.2598 
 112   0.0000       5.058388       137.6457 
 113   0.0000       5.058509       137.6490 
 114   0.0000       5.278757       143.6423 
 115   0.0000       5.278762       143.6424 
 116   0.0000       5.324393       144.8841 
 117   0.0000       5.324393       144.8841 
 118   0.0000       5.339610       145.2982 
 119   0.0000       5.340854       145.3320 
 120   0.0000       5.343377       145.4007 
 121   0.0000       5.343386       145.4009 
 122   0.0000       5.349293       145.5617 
 123   0.0000       5.349295       145.5617 
 124   0.0000       5.467873       148.7884 
 125   0.0000       5.520273       150.2143 
 126   0.0000       6.209917       168.9804 
 127   0.0000       6.209917       168.9804 
 128   0.0000       6.360899       173.0889 
 129   0.0000       6.360978       173.0910 
 130   0.0000       6.616635       180.0478 
 131   0.0000       6.616637       180.0478 
 132   0.0000       6.736221       183.3019 
 133   0.0000       6.736317       183.3045 
 134   0.0000       6.938000       188.7926 
 135   0.0000       7.141719       194.3360 
 136   0.0000       7.141723       194.3362 
 137   0.0000       7.395673       201.2465 
 138   0.0000      11.902862       323.8933 

                    ********************************
                    * MULLIKEN POPULATION ANALYSIS *
                    ********************************

--------------------------------------------
MULLIKEN ATOMIC CHARGES AND SPIN POPULATIONS
--------------------------------------------
   0 V :    0.536488    3.225793
   1 O :   -0.536488   -0.225793
Sum of atomic charges         :   -0.0000000
Sum of atomic spin populations:    3.0000000

-----------------------------------------------------
MULLIKEN REDUCED ORBITAL CHARGES AND SPIN POPULATIONS
-----------------------------------------------------
CHARGE
  0 V s       :     6.801600  s :     6.801600
      pz      :     4.089184  p :    12.164862
      px      :     4.037840
      py      :     4.037838
      dz2     :     0.721240  d :     3.467535
      dxz     :     0.375281
      dyz     :     0.375301
      dx2y2   :     0.997857
      dxy     :     0.997857
      f0      :     0.007570  f :     0.022903
      f+1     :     0.007411
      f-1     :     0.007411
      f+2     :     0.000255
      f-2     :     0.000255
      f+3     :     0.000000
      f-3     :     0.000000
      g0      :     0.001519  g :     0.006613
      g+1     :     0.002552
      g-1     :     0.002553
      g+2     :    -0.000006
      g-2     :    -0.000006
      g+3     :     0.000000
      g-3     :     0.000000
      g+4     :     0.000000
      g-4     :     0.000000
  1 O s       :     3.926219  s :     3.926219
      pz      :     1.445795  p :     4.580670
      px      :     1.567447
      py      :     1.567428
      dz2     :     0.005198  d :     0.024316
      dxz     :     0.008186
      dyz     :     0.008187
      dx2y2   :     0.001372
      dxy     :     0.001373
      f0      :     0.001675  f :     0.005282
      f+1     :     0.001282
      f-1     :     0.001282
      f+2     :     0.000521
      f-2     :     0.000521
      f+3     :    -0.000000
      f-3     :    -0.000000

SPIN
  0 V s       :     0.726441  s :     0.726441
      pz      :     0.050480  p :     0.035740
      px      :    -0.007368
      py      :    -0.007372
      dz2     :     0.267780  d :     2.457114
      dxz     :     0.096853
      dyz     :     0.096767
      dx2y2   :     0.997857
      dxy     :     0.997857
      f0      :    -0.000078  f :     0.006419
      f+1     :     0.002993
      f-1     :     0.002993
      f+2     :     0.000255
      f-2     :     0.000255
      f+3     :    -0.000000
      f-3     :    -0.000000
      g0      :    -0.000248  g :     0.000080
      g+1     :     0.000170
      g-1     :     0.000170
      g+2     :    -0.000006
      g-2     :    -0.000006
      g+3     :    -0.000000
      g-3     :    -0.000000
      g+4     :    -0.000000
      g-4     :     0.000000
  1 O s       :    -0.001952  s :    -0.001952
      pz      :    -0.044511  p :    -0.235861
      px      :    -0.095721
      py      :    -0.095629
      dz2     :     0.001431  d :     0.009351
      dxz     :     0.002588
      dyz     :     0.002587
      dx2y2   :     0.001372
      dxy     :     0.001373
      f0      :     0.000658  f :     0.002669
      f+1     :     0.000484
      f-1     :     0.000484
      f+2     :     0.000521
      f-2     :     0.000521
      f+3     :     0.000000
      f-3     :     0.000000


                     *******************************
                     * LOEWDIN POPULATION ANALYSIS *
                     *******************************

-------------------------------------------
LOEWDIN ATOMIC CHARGES AND SPIN POPULATIONS
-------------------------------------------
   0 V :    0.593603    3.026844
   1 O :   -0.593603   -0.026844

----------------------------------------------------
LOEWDIN REDUCED ORBITAL CHARGES AND SPIN POPULATIONS
----------------------------------------------------
CHARGE
  0 V s       :     6.371503  s :     6.371503
      pz      :     4.138961  p :    12.013817
      px      :     3.937429
      py      :     3.937426
      dz2     :     0.863696  d :     3.654922
      dxz     :     0.422636
      dyz     :     0.422654
      dx2y2   :     0.972968
      dxy     :     0.972968
      f0      :     0.122929  f :     0.258638
      f+1     :     0.065932
      f-1     :     0.065930
      f+2     :     0.001923
      f-2     :     0.001924
      f+3     :     0.000000
      f-3     :     0.000000
      g0      :     0.038934  g :     0.107517
      g+1     :     0.033765
      g-1     :     0.033765
      g+2     :     0.000527
      g-2     :     0.000527
      g+3     :     0.000000
      g-3     :     0.000000
      g+4     :     0.000000
      g-4     :     0.000000
  1 O s       :     3.527912  s :     3.527912
      pz      :     1.645070  p :     4.512928
      px      :     1.433935
      py      :     1.433923
      dz2     :     0.202961  d :     0.371518
      dxz     :     0.069699
      dyz     :     0.069700
      dx2y2   :     0.014579
      dxy     :     0.014579
      f0      :     0.088034  f :     0.181246
      f+1     :     0.036603
      f-1     :     0.036603
      f+2     :     0.010003
      f-2     :     0.010003
      f+3     :     0.000000
      f-3     :     0.000000

SPIN
  0 V s       :     0.634134  s :     0.634134
      pz      :     0.058748  p :     0.041010
      px      :    -0.008870
      py      :    -0.008868
      dz2     :     0.253257  d :     2.363049
      dxz     :     0.081964
      dyz     :     0.081892
      dx2y2   :     0.972968
      dxy     :     0.972968
      f0      :    -0.000866  f :    -0.004619
      f+1     :    -0.003804
      f-1     :    -0.003797
      f+2     :     0.001923
      f-2     :     0.001924
      f+3     :    -0.000000
      f-3     :    -0.000000
      g0      :    -0.000865  g :    -0.006729
      g+1     :    -0.003460
      g-1     :    -0.003457
      g+2     :     0.000527
      g-2     :     0.000527
      g+3     :    -0.000000
      g-3     :    -0.000000
      g+4     :    -0.000000
      g-4     :     0.000000
  1 O s       :     0.035238  s :     0.035238
      pz      :     0.015331  p :    -0.125547
      px      :    -0.070472
      py      :    -0.070406
      dz2     :     0.001930  d :     0.038266
      dxz     :     0.003590
      dyz     :     0.003587
      dx2y2   :     0.014579
      dxy     :     0.014579
      f0      :     0.003092  f :     0.025199
      f+1     :     0.001051
      f-1     :     0.001050
      f+2     :     0.010003
      f-2     :     0.010003
      f+3     :    -0.000000
      f-3     :    -0.000000


                      *****************************
                      * MAYER POPULATION ANALYSIS *
                      *****************************

  NA   - Mulliken gross atomic population
  ZA   - Total nuclear charge
  QA   - Mulliken gross atomic charge
  VA   - Mayer's total valence
  BVA  - Mayer's bonded valence
  FA   - Mayer's free valence

  ATOM       NA         ZA         QA         VA         BVA        FA
  0 V     22.4635    23.0000     0.5365     5.2833     2.3274     2.9559
  1 O      8.5365     8.0000    -0.5365     2.3548     2.3274     0.0274

  Mayer bond orders larger than 0.100000
B(  0-V ,  1-O ) :   2.3274 

-------
TIMINGS
-------

Total SCF time: 0 days 0 hours 23 min 26 sec 

Total time                  ....    1406.892 sec
Sum of individual times     ....    1406.325 sec  (100.0%)

Fock matrix formation       ....    1405.297 sec  ( 99.9%)
  XC integration            ....       3.711 sec  (  0.3% of F)
    Basis function eval.    ....       0.477 sec  ( 12.9% of XC)
    Density eval.           ....       0.567 sec  ( 15.3% of XC)
    XC-Functional eval.     ....       0.121 sec  (  3.2% of XC)
    XC-Potential eval.      ....       1.683 sec  ( 45.4% of XC)
Diagonalization             ....       0.497 sec  (  0.0%)
Density matrix formation    ....       0.060 sec  (  0.0%)
Population analysis         ....       0.007 sec  (  0.0%)
Initial guess               ....       0.101 sec  (  0.0%)
Orbital Transformation      ....       0.000 sec  (  0.0%)
Orbital Orthonormalization  ....       0.000 sec  (  0.0%)
DIIS solution               ....       0.197 sec  (  0.0%)
Grid generation             ....       0.165 sec  (  0.0%)

-------------------------   --------------------
FINAL SINGLE POINT ENERGY     -1019.141781211863
-------------------------   --------------------


                            ***************************************
                            *     ORCA property calculations      *
                            ***************************************

                                    ---------------------
                                    Active property flags
                                    ---------------------
   (+) Dipole Moment


------------------------------------------------------------------------------
                       ORCA ELECTRIC PROPERTIES CALCULATION
------------------------------------------------------------------------------

Dipole Moment Calculation                       ... on
Quadrupole Moment Calculation                   ... off
Polarizability Calculation                      ... off
GBWName                                         ... 17_VO.gbw
Electron density file                           ... 17_VO.scfp
The origin for moment calculation is the CENTER OF MASS  = ( 0.000000,  0.000000  1.104702)

-------------
DIPOLE MOMENT
-------------
                                X             Y             Z
Electronic contribution:     -0.00040      -0.00106      -3.33669
Nuclear contribution   :      0.00000       0.00000       1.77684
                        -----------------------------------------
Total Dipole Moment    :     -0.00040      -0.00106      -1.55986
                        -----------------------------------------
Magnitude (a.u.)       :      1.55986
Magnitude (Debye)      :      3.96485



--------------------
Rotational spectrum 
--------------------
 
Rotational constants in cm-1:     0.000000     0.546523     0.546523 
Rotational constants in MHz :     0.000000 16384.348098 16384.348098 

 Dipole components along the rotational axes: 
x,y,z [a.u.] :    -1.559859    -0.001058    -0.000397 
x,y,z [Debye]:    -3.964848    -0.002689    -0.001008 

 

Timings for individual modules:

Sum of individual times         ...     1410.558 sec (=  23.509 min)
GTO integral calculation        ...        3.083 sec (=   0.051 min)   0.2 %
SCF iterations                  ...     1407.475 sec (=  23.458 min)  99.8 %
                             ****ORCA TERMINATED NORMALLY****
TOTAL RUN TIME: 0 days 0 hours 23 minutes 31 seconds 183 msec
