
                                 *****************
                                 * O   R   C   A *
                                 *****************

           --- An Ab Initio, DFT and Semiempirical electronic structure package ---

                  #######################################################
                  #                        -***-                        #
                  #          Department of theory and spectroscopy      #
                  #               Directorship: Frank Neese             #
                  #        Max Planck Institute fuer Kohlenforschung    #
                  #                Kaiser Wilhelm Platz 1               #
                  #                 D-45470 Muelheim/Ruhr               #
                  #                      Germany                        #
                  #                                                     #
                  #                  All rights reserved                #
                  #                        -***-                        #
                  #######################################################


                         Program Version 4.2.0 -  RELEASE  -


 With contributions from (in alphabetic order):
   Daniel Aravena         : Magnetic Suceptibility
   Michael Atanasov       : Ab Initio Ligand Field Theory (pilot matlab implementation)
   Alexander A. Auer      : GIAO ZORA, VPT2
   Ute Becker             : Parallelization
   Giovanni Bistoni       : ED, misc. LED, open-shell LED, HFLED
   Martin Brehm           : Molecular dynamics
   Dmytro Bykov           : SCF Hessian
   Vijay G. Chilkuri      : MRCI spin determinant printing, contributions to CSF-ICE
   Dipayan Datta          : RHF DLPNO-CCSD density
   Achintya Kumar Dutta   : EOM-CC, STEOM-CC
   Dmitry Ganyushin       : Spin-Orbit,Spin-Spin,Magnetic field MRCI
   Miquel Garcia          : C-PCM Hessian, Gaussian charge scheme
   Yang Guo               : DLPNO-NEVPT2, CIM, IAO-localization
   Andreas Hansen         : Spin unrestricted coupled pair/coupled cluster methods
   Benjamin Helmich-Paris : CASSCF linear response (MC-RPA)
   Lee Huntington         : MR-EOM, pCC
   Robert Izsak           : Overlap fitted RIJCOSX, COSX-SCS-MP3, EOM
   Christian Kollmar      : KDIIS, OOCD, Brueckner-CCSD(T), CCSD density
   Simone Kossmann        : Meta GGA functionals, TD-DFT gradient, OOMP2, MP2 Hessian
   Martin Krupicka        : AUTO-CI
   Lucas Lang             : DCDCAS
   Dagmar Lenk            : GEPOL surface, SMD
   Dimitrios Liakos       : Extrapolation schemes; Compound Job, initial MDCI parallelization
   Dimitrios Manganas     : Further ROCIS development; embedding schemes
   Dimitrios Pantazis     : SARC Basis sets
   Taras Petrenko         : DFT Hessian,TD-DFT gradient, ASA, ECA, R-Raman, ABS, FL, XAS/XES, NRVS
   Peter Pinski           : DLPNO-MP2, DLPNO-MP2 Gradient
   Christoph Reimann      : Effective Core Potentials
   Marius Retegan         : Local ZFS, SOC
   Christoph Riplinger    : Optimizer, TS searches, QM/MM, DLPNO-CCSD(T), (RO)-DLPNO pert. Triples
   Tobias Risthaus        : Range-separated hybrids, TD-DFT gradient, RPA, STAB
   Michael Roemelt        : Original ROCIS implementation
   Masaaki Saitow         : Open-shell DLPNO-CCSD energy and density
   Barbara Sandhoefer     : DKH picture change effects
   Avijit Sen             : IP-ROCIS
   Kantharuban Sivalingam : CASSCF convergence, NEVPT2, FIC-MRCI
   Bernardo de Souza      : ESD, SOC TD-DFT
   Georgi Stoychev        : AutoAux, RI-MP2 NMR
   Willem Van den Heuvel  : Paramagnetic NMR
   Boris Wezisla          : Elementary symmetry handling
   Frank Wennmohs         : Technical directorship


 We gratefully acknowledge several colleagues who have allowed us to
 interface, adapt or use parts of their codes:
   Stefan Grimme, W. Hujo, H. Kruse,             : VdW corrections, initial TS optimization,
                  C. Bannwarth                     DFT functionals, gCP, sTDA/sTD-DF
   Ed Valeev, F. Pavosevic, A. Kumar             : LibInt (2-el integral package), F12 methods
   Garnet Chan, S. Sharma, J. Yang, R. Olivares  : DMRG
   Ulf Ekstrom                                   : XCFun DFT Library
   Mihaly Kallay                                 : mrcc  (arbitrary order and MRCC methods)
   Andreas Klamt, Michael Diedenhofen            : otool_cosmo (COSMO solvation model)
   Jiri Pittner, Ondrej Demel                    : Mk-CCSD
   Frank Weinhold                                : gennbo (NPA and NBO analysis)
   Christopher J. Cramer and Donald G. Truhlar   : smd solvation model
   Lars Goerigk                                  : TD-DFT with DH, B97 family of functionals
   V. Asgeirsson, H. Jonsson                     : NEB implementation
   FAccTs GmbH                                   : IRC, NEB, NEB-TS, Multilevel, MM, QM/MM, CI optimization
   S Lehtola, MJT Oliveira, MAL Marques          : LibXC Library


 Your calculation uses the libint2 library for the computation of 2-el integrals
 For citations please refer to: http://libint.valeyev.net

 Your ORCA version has been built with support for libXC version: 4.2.3
 For citations please refer to: https://tddft.org/programs/libxc/

 This ORCA versions uses:
   CBLAS   interface :  Fast vector & matrix operations
   LAPACKE interface :  Fast linear algebra routines
   SCALAPACK package :  Parallel linear algebra routines


Your calculation utilizes the DFT-NL dispersion correction.
Cite in your paper:
Vydrov, O. A.; Van Voorhis, T. J. Chem. Phys. 2010, 133, 244103
Hujo, W.; Grimme, S. J. Chem. Theory Comput. 2011, 7, 3866 
   

----- Orbital basis set information -----
Your calculation utilizes the basis: aug-cc-pVTZ 
    H, B-Ne : Obtained from the ccRepo (grant-hill.group.shef.ac.uk/ccrepo) Feb. 2017
              R. A. Kendall, T. H. Dunning, Jr., R. J. Harrison, J. Chem. Phys. 96, 6796 (1992)
         He : Obtained from the ccRepo (grant-hill.group.shef.ac.uk/ccrepo) Feb. 2017
              D. E. Woon, T. H. Dunning, Jr., J. Chem. Phys. 100, 2975 (1994)
  Li-Be, Na : Obtained from the ccRepo (grant-hill.group.shef.ac.uk/ccrepo) Feb. 2017
              B. P. Prascher, D. E. Woon, K. A. Peterson, T. H. Dunning, Jr., A. K. Wilson, Theor. Chem. Acc. 128, 69 (2011)
         Mg : Obtained from the Peterson Research Group Website (tyr0.chem.wsu.edu/~kipeters) Feb. 2017
              B. P. Prascher, D. E. Woon, K. A. Peterson, T. H. Dunning, Jr., A. K. Wilson, Theor. Chem. Acc. 128, 69 (2011)
      Al-Ar : Obtained from the ccRepo (grant-hill.group.shef.ac.uk/ccrepo) Feb. 2017
              D. E. Woon, T. H. Dunning, Jr., J. Chem. Phys. 98, 1358 (1993)
      Sc-Zn : Obtained from the ccRepo (grant-hill.group.shef.ac.uk/ccrepo) Feb. 2017
              N. B. Balabanov, K. A. Peterson, J. Chem. Phys. 123, 064107 (2005)
              N. B. Balabanov, K. A. Peterson, J. Chem. Phys. 125, 074110 (2006)
      Ga-Kr : Obtained from the ccRepo (grant-hill.group.shef.ac.uk/ccrepo) Feb. 2017
              A. K. Wilson, D. E. Woon, K. A. Peterson, T. H. Dunning, Jr., J. Chem. Phys. 110, 7667 (1999)
     Ag, Au : Obtained from the Peterson Research Group Website (tyr0.chem.wsu.edu/~kipeters) Feb. 2017
              K. A. Peterson, C. Puzzarini, Theor. Chem. Acc. 114, 283 (2005)

----- AuxJK basis set information -----
Your calculation utilizes the auxiliary basis: def2/JK
   H-Ba, Hf-Rn: F. Weigend, J. Comput. Chem. 29, 167 (2008).

================================================================================
                                        WARNINGS
                       Please study these warnings very carefully!
================================================================================


WARNING: your system is open-shell and RHF/RKS was chosen
  ===> : WILL SWITCH to UHF/UKS


INFO   : the flag for use of LIBINT has been found!

================================================================================
                                       INPUT FILE
================================================================================
NAME = 18_VS.in
|  1> #
|  2> # 18_VS wb97m-v/aug-cc-pvtz
|  3> #
|  4> ! wb97m-v aug-cc-pvtz def2/jk grid4 nofinalgrid
|  5> 
|  6> *xyz 0 4
|  7>   V   0.00000000000000      0.00000000000000     -0.02784157502378
|  8>   S   0.00000000000000      0.00000000000000      2.02784157502377
|  9> *
| 10> 
| 11> %pal
| 12> nprocs 24
| 13> end
| 14> 
| 15> 
| 16>                          ****END OF INPUT****
================================================================================

                       ****************************
                       * Single Point Calculation *
                       ****************************

---------------------------------
CARTESIAN COORDINATES (ANGSTROEM)
---------------------------------
  V      0.000000    0.000000   -0.027842
  S      0.000000    0.000000    2.027842

----------------------------
CARTESIAN COORDINATES (A.U.)
----------------------------
  NO LB      ZA    FRAG     MASS         X           Y           Z
   0 V    23.0000    0    50.940    0.000000    0.000000   -0.052613
   1 S    16.0000    0    32.060    0.000000    0.000000    3.832065

--------------------------------
INTERNAL COORDINATES (ANGSTROEM)
--------------------------------
 V      0   0   0     0.000000000000     0.00000000     0.00000000
 S      1   0   0     2.055683150048     0.00000000     0.00000000

---------------------------
INTERNAL COORDINATES (A.U.)
---------------------------
 V      0   0   0     0.000000000000     0.00000000     0.00000000
 S      1   0   0     3.884678171706     0.00000000     0.00000000

---------------------
BASIS SET INFORMATION
---------------------
There are 2 groups of distinct atoms

 Group   1 Type V   : 116s77p23d3f2g contracted to 8s7p5d3f2g pattern {19191919191911/151515151511/77711/111/11}
 Group   2 Type S   : 42s17p3d2f contracted to 6s5p3d2f pattern {131313111/77111/111/11}

Atom   0V    basis set group =>   1
Atom   1S    basis set group =>   2
----------------------------------
AUXILIARY/JK BASIS SET INFORMATION
----------------------------------
There are 2 groups of distinct atoms

 Group   1 Type V   : 19s14p12d10f7g3h1i contracted to 16s13p11d9f5g3h1i pattern {4111111111111111/2111111111111/21111111111/211111111/31111/111/1}
 Group   2 Type S   : 16s12p10d4f1g contracted to 13s11p9d4f1g pattern {4111111111111/21111111111/211111111/1111/1}

Atom   0V    basis set group =>   1
Atom   1S    basis set group =>   2


           ************************************************************
           *        Program running with 24 parallel MPI-processes    *
           *              working on a common directory               *
           ************************************************************
------------------------------------------------------------------------------
                           ORCA GTO INTEGRAL CALCULATION
------------------------------------------------------------------------------

                         BASIS SET STATISTICS AND STARTUP INFO

 # of primitive gaussian shells          ...  285
 # of primitive gaussian functions       ...  623
 # of contracted shells                  ...   41
 # of contracted basis functions         ...  143
 Highest angular momentum                ...    4
 Maximum contraction depth               ...   19
 Integral package used                   ... LIBINT
 Integral threshhold            Thresh   ...  1.000e-10
 Primitive cut-off              TCut     ...  1.000e-11


------------------------------ INTEGRAL EVALUATION ----------------------------


 * One electron integrals 
 Pre-screening matrix                    ... done
 Shell pair data                         ... done (   0.001 sec)



           ************************************************************
           *        Program running with 24 parallel MPI-processes    *
           *              working on a common directory               *
           ************************************************************
-------------------------------------------------------------------------------
                                 ORCA SCF
-------------------------------------------------------------------------------

------------
SCF SETTINGS
------------
Hamiltonian:
 Density Functional     Method          .... DFT(GTOs)
 Exchange Functional    Exchange        .... WB97M-V
 Correlation Functional Correlation     .... WB97M-V
 Gradients option       PostSCFGGA      .... off
 Hybrid DFT is turned on
   Fraction HF Exchange ScalHFX         ....  0.150000
   Scaling of DF-GGA-X  ScalDFX         ....  0.000000
   Scaling of DF-GGA-C  ScalDFC         ....  1.000000
   Scaling of DF-LDA-C  ScalLDAC        ....  1.000000
   Perturbative correction              ....  0.000000
   Density functional embedding theory  .... OFF
 Long-range corrected/Screened/Range-Separated Hybrid DFT is turned on
   Amount of maximum screened exact exchange              ....  0.850000
   Range separation parameter mu (erf(mu*r12)/r12)        ....  0.300000
   NL short-range parameter             ....  6.000000
   NL long-range parameter              ....  0.010000


General Settings:
 Integral files         IntName         .... 18_VS
 Hartree-Fock type      HFTyp           .... UHF
 Total Charge           Charge          ....    0
 Multiplicity           Mult            ....    4
 Number of Electrons    NEL             ....   39
 Basis Dimension        Dim             ....  143
 Nuclear Repulsion      ENuc            ....     94.7311421266 Eh

Convergence Acceleration:
 DIIS                   CNVDIIS         .... on
   Start iteration      DIISMaxIt       ....    12
   Startup error        DIISStart       ....  0.200000
   # of expansion vecs  DIISMaxEq       ....     5
   Bias factor          DIISBfac        ....   1.050
   Max. coefficient     DIISMaxC        ....  10.000
 Newton-Raphson         CNVNR           .... off
 SOSCF                  CNVSOSCF        .... off
 Level Shifting         CNVShift        .... on
   Level shift para.    LevelShift      ....    0.2500
   Turn off err/grad.   ShiftErr        ....    0.0010
 Zerner damping         CNVZerner       .... off
 Static damping         CNVDamp         .... on
   Fraction old density DampFac         ....    0.7000
   Max. Damping (<1)    DampMax         ....    0.9800
   Min. Damping (>=0)   DampMin         ....    0.0000
   Turn off err/grad.   DampErr         ....    0.1000
 Fernandez-Rico         CNVRico         .... off

SCF Procedure:
 Maximum # iterations   MaxIter         ....   125
 SCF integral mode      SCFMode         .... Direct
   Integral package                     .... LIBINT
 Reset frequency        DirectResetFreq ....    20
 Integral Threshold     Thresh          ....  1.000e-10 Eh
 Primitive CutOff       TCut            ....  1.000e-11 Eh

Convergence Tolerance:
 Convergence Check Mode ConvCheckMode   .... Total+1el-Energy
 Convergence forced     ConvForced      .... 0
 Energy Change          TolE            ....  1.000e-06 Eh
 1-El. energy change                    ....  1.000e-03 Eh
 DIIS Error             TolErr          ....  1.000e-06


Diagonalization of the overlap matrix:
Smallest eigenvalue                        ... 5.303e-05
Time for diagonalization                   ...    0.005 sec
Threshold for overlap eigenvalues          ... 1.000e-08
Number of eigenvalues below threshold      ... 0
Time for construction of square roots      ...    0.003 sec
Total time needed                          ...    0.008 sec

-------------------
DFT GRID GENERATION
-------------------

General Integration Accuracy     IntAcc      ...  4.670
Radial Grid Type                 RadialGrid  ... Gauss-Chebyshev
Angular Grid (max. acc.)         AngularGrid ... Lebedev-302
Angular grid pruning method      GridPruning ... 3 (G Style)
Weight generation scheme         WeightScheme... Becke
Basis function cutoff            BFCut       ...    1.0000e-10
Integration weight cutoff        WCut        ...    1.0000e-14
Grids for H and He will be reduced by one unit

# of grid points (after initial pruning)     ...  16510 (   0.0 sec)
# of grid points (after weights+screening)   ...  16481 (   0.0 sec)
nearest neighbour list constructed           ...    0.0 sec
Grid point re-assignment to atoms done       ...    0.0 sec
Grid point division into batches done        ...    0.1 sec
Reduced shell lists constructed in    0.1 sec

Total number of grid points                  ...    16481
Total number of batches                      ...      259
Average number of points per batch           ...       63
Average number of grid points per atom       ...     8240
Average number of shells per batch           ...    17.25 (42.07%)
Average number of basis functions per batch  ...    45.92 (32.11%)
Average number of large shells per batch     ...     9.92 (57.49%)
Average number of large basis fcns per batch ...    26.75 (58.26%)
Maximum spatial batch extension              ...  24.49, 24.19, 17.58 au
Average spatial batch extension              ...   0.84,  0.83,  0.64 au

Time for grid setup =    0.162 sec

------------------------------
INITIAL GUESS: MODEL POTENTIAL
------------------------------
Loading Hartree-Fock densities                     ... done
Calculating cut-offs                               ... done
Setting up the integral package                    ... done
Initializing the effective Hamiltonian             ... done
Starting the Coulomb interaction                   ... done (   0.0 sec)
Reading the grid                                   ... done
Mapping shells                                     ... done
Starting the XC term evaluation                    ... done (   0.0 sec)
  promolecular density results
     # of electrons  =     39.000005561
     EX              =    -68.835837529
     EC              =     -1.568818143
     EX+EC           =    -70.404655672
Transforming the Hamiltonian                       ... done (   0.0 sec)
Diagonalizing the Hamiltonian                      ... done (   0.0 sec)
Back transforming the eigenvectors                 ... done (   0.0 sec)
Now organizing SCF variables                       ... done
                      ------------------
                      INITIAL GUESS DONE (   0.3 sec)
                      ------------------
--------------
SCF ITERATIONS
--------------
ITER       Energy         Delta-E        Max-DP      RMS-DP      [F,P]     Damp
               ***  Starting incremental Fock matrix formation  ***
  0  -1342.1796625345   0.000000000000 0.06911141  0.00143316  0.1181056 0.7000
  1  -1342.2103186934  -0.030656158928 0.04835871  0.00098491  0.0719394 0.7000
                               ***Turning on DIIS***
  2  -1342.2269985235  -0.016679830061149.26285892  1.81639008  0.0370094 0.0000
  3  -1340.1235749111   2.103423612335 3.94857917  0.04228674  0.2445330 0.7000
  4  -1340.1655716405  -0.041996729395 3.40705928  0.03682531  0.2295729 0.7000
  5  -1340.2061166995  -0.040545058946 2.65604570  0.02880738  0.2152343 0.7000
  6  -1340.2388488117  -0.032732112234 2.09053228  0.02273565  0.2038760 0.7000
  7  -1340.2642997215  -0.02545090981741.16317770  0.50671417  0.1951942 0.7000
  8  -1341.1026464267  -0.83834670513696.03894559  1.18249530  0.0629127 0.0000
  9  -1342.0820261499  -0.979379723276 0.00921948  0.00022591  0.2021682 0.7000
 10  -1342.0988895853  -0.016863435362 0.00876038  0.00022495  0.1903046 0.7000
 11  -1342.1156472744  -0.016757689101 0.00832003  0.00020129  0.1780721 0.7000
 12  -1342.1297648620  -0.014117587574 0.00708126  0.00017038  0.1676484 0.7000
 13  -1342.1414755047  -0.011710642759 0.04231994  0.00105208  0.1588934 0.7000
 14  -1342.1840049622  -0.042529457477 0.03242542  0.00068081  0.1132114 0.7000
 15  -1342.2118514581  -0.027846495839 0.08190068  0.00141709  0.0765994 0.0000
 16  -1342.2632106447  -0.051359186615 0.01241025  0.00032428  0.0097656 0.0000
 17  -1342.2639864400  -0.000775795297 0.00998765  0.00021636  0.0085194 0.0000
 18  -1342.2644076825  -0.000421242531 0.00979805  0.00019574  0.0048591 0.0000
 19  -1342.2647241253  -0.000316442763 0.00801448  0.00017253  0.0042508 0.0000
               *** Restarting incremental Fock matrix formation ***
                                   *** Resetting DIIS ***
 20  -1342.2649274409  -0.000203315632 0.00552513  0.00011154  0.0023890 0.0000
 21  -1342.2649625667  -0.000035125787 0.00375356  0.00008576  0.0019852 0.0000
 22  -1342.2649913701  -0.000028803381 0.00406804  0.00005910  0.0019042 0.0000
 23  -1342.2650260911  -0.000034721006 0.00503752  0.00008059  0.0014372 0.0000
 24  -1342.2650507926  -0.000024701573 0.00539085  0.00007311  0.0011257 0.0000
 25  -1342.2650413693   0.000009423381 0.00620187  0.00007559  0.0007740 0.0000
 26  -1342.2649628497   0.000078519510 0.00199972  0.00002802  0.0004097 0.0000
 27  -1342.2649395249   0.000023324826 0.00195965  0.00002294  0.0002994 0.0000
 28  -1342.2649182385   0.000021286391 0.00074794  0.00000813  0.0001337 0.0000
 29  -1342.2649129230   0.000005315546 0.00038944  0.00000356  0.0000659 0.0000
 30  -1342.2649115623   0.000001360675 0.00006877  0.00000105  0.0000219 0.0000
                 **** Energy Check signals convergence ****

               *****************************************************
               *                     SUCCESS                       *
               *           SCF CONVERGED AFTER  31 CYCLES          *
               *****************************************************


Setting up the DFT-NL grid :

General Integration Accuracy     IntAcc      ...  4.340
Radial Grid Type                 RadialGrid  ... Gauss-Chebyshev
Angular Grid (max. acc.)         AngularGrid ... Lebedev-110
Angular grid pruning method      GridPruning ... 3 (G Style)
Weight generation scheme         WeightScheme... Becke
Basis function cutoff            BFCut       ...    1.0000e-10
Integration weight cutoff        WCut        ...    1.0000e-14
Grids for H and He will be reduced by one unit

# of grid points (after initial pruning)     ...   4778 (   0.0 sec)
# of grid points (after weights+screening)   ...   4753 (   0.0 sec)
nearest neighbour list constructed           ...    0.0 sec
Grid point re-assignment to atoms done       ...    0.0 sec
Grid point division into batches done        ...    0.0 sec
Reduced shell lists constructed in    0.0 sec

Total number of grid points                  ...     4753
Total number of batches                      ...       75
Average number of points per batch           ...       63
Average number of grid points per atom       ...     2376
Average number of shells per batch           ...    24.40 (59.51%)
Average number of basis functions per batch  ...    82.80 (57.90%)
Average number of large shells per batch     ...    19.20 (78.69%)
Average number of large basis fcns per batch ...    60.80 (73.43%)
Maximum spatial batch extension              ...  18.98, 28.73, 16.15 au
Average spatial batch extension              ...   0.93,  1.27,  0.86 au

Final grid set up in    0.0 sec

-------------------------------------------------------------------------------
                         DFT-NL dispersion correction                          
-------------------------------------------------------------------------------

SC Energy -1342.264912049 
NL    Energy 0.162336450 
SC+NL Energy -1342.102575599 
NL done in    0.0 sec
-------------------------------------------------------------------------------

----------------
TOTAL SCF ENERGY
----------------

Total Energy       :        -1342.10257560 Eh          -36520.46775 eV

Components:
Nuclear Repulsion  :           94.73114213 Eh            2577.76543 eV
Electronic Energy  :        -1436.83371773 Eh          -39098.23318 eV
One Electron Energy:        -2036.02672236 Eh          -55403.10375 eV
Two Electron Energy:          599.19300463 Eh           16304.87058 eV

Virial components:
Potential Energy   :        -2682.04102769 Eh          -72982.04670 eV
Kinetic Energy     :         1339.93845209 Eh           36461.57895 eV
Virial Ratio       :            2.00161509


DFT components:
N(Alpha)           :       20.999999439976 electrons
N(Beta)            :       17.999997585962 electrons
N(Total)           :       38.999997025938 electrons
E(X)               :      -53.585749660110 Eh       
E(C)               :       -1.809252034038 Eh       
NL Energy, E(C,NL) :        0.162336450147 Eh       
E(XC)              :      -55.232665244000 Eh       
DFET-embed. en.    :        0.000000000000 Eh       

---------------
SCF CONVERGENCE
---------------

  Last Energy change         ...   -4.8671e-07  Tolerance :   1.0000e-06
  Last MAX-Density change    ...    4.0987e-05  Tolerance :   1.0000e-05
  Last RMS-Density change    ...    6.8396e-07  Tolerance :   1.0000e-06
  Last DIIS Error            ...    1.1935e-05  Tolerance :   1.0000e-06

             **** THE GBW FILE WAS UPDATED (18_VS.gbw) ****
             **** DENSITY FILE WAS UPDATED (18_VS.scfp) ****
             **** ENERGY FILE WAS UPDATED (18_VS.en.tmp) ****
----------------------
UHF SPIN CONTAMINATION
----------------------

Warning: in a DFT calculation there is little theoretical justification to 
         calculate <S**2> as in Hartree-Fock theory. We will do it anyways
         but you should keep in mind that the values have only limited relevance

Expectation value of <S**2>     :     3.856979
Ideal value S*(S+1) for S=1.5   :     3.750000
Deviation                       :     0.106979

             **** THE GBW FILE WAS UPDATED (18_VS.gbw) ****
             **** DENSITY FILE WAS UPDATED (18_VS.scfp) ****
----------------
ORBITAL ENERGIES
----------------
                 SPIN UP ORBITALS
  NO   OCC          E(Eh)            E(eV) 
   0   1.0000    -197.301069     -5368.8350 
   1   1.0000     -89.145322     -2425.7675 
   2   1.0000     -22.451349      -610.9323 
   3   1.0000     -18.877106      -513.6722 
   4   1.0000     -18.870807      -513.5008 
   5   1.0000     -18.870807      -513.5008 
   6   1.0000      -8.060119      -219.3270 
   7   1.0000      -5.966286      -162.3509 
   8   1.0000      -5.965781      -162.3371 
   9   1.0000      -5.965781      -162.3371 
  10   1.0000      -2.790126       -75.9232 
  11   1.0000      -1.815781       -49.4099 
  12   1.0000      -1.805255       -49.1235 
  13   1.0000      -1.805255       -49.1235 
  14   1.0000      -0.727724       -19.8024 
  15   1.0000      -0.385005       -10.4765 
  16   1.0000      -0.331364        -9.0169 
  17   1.0000      -0.331363        -9.0168 
  18   1.0000      -0.328312        -8.9338 
  19   1.0000      -0.328312        -8.9338 
  20   1.0000      -0.292768        -7.9666 
  21   0.0000      -0.041146        -1.1197 
  22   0.0000      -0.014649        -0.3986 
  23   0.0000      -0.014649        -0.3986 
  24   0.0000       0.013423         0.3653 
  25   0.0000       0.017530         0.4770 
  26   0.0000       0.017530         0.4770 
  27   0.0000       0.018467         0.5025 
  28   0.0000       0.044756         1.2179 
  29   0.0000       0.044757         1.2179 
  30   0.0000       0.051117         1.3910 
  31   0.0000       0.051117         1.3910 
  32   0.0000       0.051255         1.3947 
  33   0.0000       0.067958         1.8492 
  34   0.0000       0.067958         1.8492 
  35   0.0000       0.088527         2.4089 
  36   0.0000       0.113726         3.0946 
  37   0.0000       0.135811         3.6956 
  38   0.0000       0.137424         3.7395 
  39   0.0000       0.137424         3.7395 
  40   0.0000       0.180385         4.9085 
  41   0.0000       0.180385         4.9085 
  42   0.0000       0.213245         5.8027 
  43   0.0000       0.220643         6.0040 
  44   0.0000       0.220643         6.0040 
  45   0.0000       0.229981         6.2581 
  46   0.0000       0.229981         6.2581 
  47   0.0000       0.260702         7.0941 
  48   0.0000       0.293645         7.9905 
  49   0.0000       0.293646         7.9905 
  50   0.0000       0.355880         9.6840 
  51   0.0000       0.377646        10.2763 
  52   0.0000       0.377646        10.2763 
  53   0.0000       0.417094        11.3497 
  54   0.0000       0.446947        12.1621 
  55   0.0000       0.446947        12.1621 
  56   0.0000       0.466549        12.6954 
  57   0.0000       0.510301        13.8860 
  58   0.0000       0.510303        13.8860 
  59   0.0000       0.531511        14.4632 
  60   0.0000       0.531511        14.4632 
  61   0.0000       0.579444        15.7675 
  62   0.0000       0.613491        16.6939 
  63   0.0000       0.613491        16.6939 
  64   0.0000       0.648376        17.6432 
  65   0.0000       0.648376        17.6432 
  66   0.0000       0.687831        18.7168 
  67   0.0000       0.697547        18.9812 
  68   0.0000       0.697550        18.9813 
  69   0.0000       0.734503        19.9869 
  70   0.0000       0.734503        19.9869 
  71   0.0000       0.771015        20.9804 
  72   0.0000       0.771016        20.9804 
  73   0.0000       0.788252        21.4494 
  74   0.0000       0.842849        22.9351 
  75   0.0000       0.842849        22.9351 
  76   0.0000       0.917503        24.9665 
  77   0.0000       0.935250        25.4494 
  78   0.0000       0.935250        25.4494 
  79   0.0000       0.963120        26.2078 
  80   0.0000       0.995774        27.0964 
  81   0.0000       0.995779        27.0965 
  82   0.0000       1.216155        33.0933 
  83   0.0000       1.216155        33.0933 
  84   0.0000       1.220987        33.2247 
  85   0.0000       1.425379        38.7865 
  86   0.0000       1.425379        38.7865 
  87   0.0000       1.466708        39.9111 
  88   0.0000       1.466711        39.9112 
  89   0.0000       1.531806        41.6826 
  90   0.0000       1.585652        43.1478 
  91   0.0000       1.585652        43.1478 
  92   0.0000       1.686248        45.8851 
  93   0.0000       1.686253        45.8853 
  94   0.0000       1.724112        46.9155 
  95   0.0000       1.724112        46.9155 
  96   0.0000       1.807522        49.1852 
  97   0.0000       1.836985        49.9869 
  98   0.0000       1.836986        49.9869 
  99   0.0000       1.893434        51.5230 
 100   0.0000       1.893434        51.5230 
 101   0.0000       1.936224        52.6873 
 102   0.0000       1.936243        52.6879 
 103   0.0000       2.027055        55.1590 
 104   0.0000       2.075112        56.4667 
 105   0.0000       2.075112        56.4667 
 106   0.0000       2.136280        58.1311 
 107   0.0000       2.218069        60.3567 
 108   0.0000       2.218069        60.3567 
 109   0.0000       2.222728        60.4835 
 110   0.0000       2.222728        60.4835 
 111   0.0000       2.252308        61.2884 
 112   0.0000       2.314673        62.9855 
 113   0.0000       2.314673        62.9855 
 114   0.0000       2.320025        63.1311 
 115   0.0000       2.320056        63.1319 
 116   0.0000       2.525809        68.7308 
 117   0.0000       2.684454        73.0477 
 118   0.0000       2.732337        74.3507 
 119   0.0000       2.732337        74.3507 
 120   0.0000       2.887948        78.5851 
 121   0.0000       2.887957        78.5853 
 122   0.0000       3.170655        86.2779 
 123   0.0000       3.170655        86.2779 
 124   0.0000       3.484538        94.8191 
 125   0.0000       3.690227       100.4162 
 126   0.0000       4.937576       134.3583 
 127   0.0000       4.937576       134.3583 
 128   0.0000       4.962997       135.0500 
 129   0.0000       4.963016       135.0505 
 130   0.0000       5.105100       138.9168 
 131   0.0000       5.105100       138.9168 
 132   0.0000       5.248761       142.8261 
 133   0.0000       5.248808       142.8273 
 134   0.0000       5.264593       143.2569 
 135   0.0000       5.264593       143.2569 
 136   0.0000       5.305218       144.3623 
 137   0.0000       5.341830       145.3586 
 138   0.0000       5.341849       145.3591 
 139   0.0000       5.440665       148.0480 
 140   0.0000       5.440665       148.0480 
 141   0.0000       5.455438       148.4500 
 142   0.0000       5.766788       156.9223 

                 SPIN DOWN ORBITALS
  NO   OCC          E(Eh)            E(eV) 
   0   1.0000    -197.300172     -5368.8106 
   1   1.0000     -89.147714     -2425.8326 
   2   1.0000     -22.409689      -609.7986 
   3   1.0000     -18.853691      -513.0350 
   4   1.0000     -18.832252      -512.4516 
   5   1.0000     -18.832252      -512.4516 
   6   1.0000      -8.062506      -219.3919 
   7   1.0000      -5.970135      -162.4556 
   8   1.0000      -5.970135      -162.4556 
   9   1.0000      -5.969294      -162.4327 
  10   1.0000      -2.685529       -73.0770 
  11   1.0000      -1.726294       -46.9749 
  12   1.0000      -1.673146       -45.5286 
  13   1.0000      -1.673146       -45.5286 
  14   1.0000      -0.738236       -20.0884 
  15   1.0000      -0.349905        -9.5214 
  16   1.0000      -0.328325        -8.9342 
  17   1.0000      -0.328324        -8.9342 
  18   0.0000      -0.102607        -2.7921 
  19   0.0000      -0.054608        -1.4860 
  20   0.0000      -0.054607        -1.4859 
  21   0.0000      -0.021774        -0.5925 
  22   0.0000      -0.002856        -0.0777 
  23   0.0000       0.006811         0.1853 
  24   0.0000       0.006823         0.1857 
  25   0.0000       0.019045         0.5182 
  26   0.0000       0.019052         0.5184 
  27   0.0000       0.026772         0.7285 
  28   0.0000       0.034008         0.9254 
  29   0.0000       0.034018         0.9257 
  30   0.0000       0.039980         1.0879 
  31   0.0000       0.069708         1.8968 
  32   0.0000       0.069717         1.8971 
  33   0.0000       0.070553         1.9198 
  34   0.0000       0.070555         1.9199 
  35   0.0000       0.084266         2.2930 
  36   0.0000       0.093332         2.5397 
  37   0.0000       0.128023         3.4837 
  38   0.0000       0.136452         3.7130 
  39   0.0000       0.136452         3.7131 
  40   0.0000       0.153591         4.1794 
  41   0.0000       0.153592         4.1795 
  42   0.0000       0.194420         5.2904 
  43   0.0000       0.197878         5.3845 
  44   0.0000       0.197884         5.3847 
  45   0.0000       0.198907         5.4125 
  46   0.0000       0.198912         5.4127 
  47   0.0000       0.261306         7.1105 
  48   0.0000       0.283823         7.7232 
  49   0.0000       0.283824         7.7233 
  50   0.0000       0.349338         9.5060 
  51   0.0000       0.372884        10.1467 
  52   0.0000       0.372884        10.1467 
  53   0.0000       0.376877        10.2554 
  54   0.0000       0.376877        10.2554 
  55   0.0000       0.398197        10.8355 
  56   0.0000       0.454888        12.3781 
  57   0.0000       0.470494        12.8028 
  58   0.0000       0.470500        12.8030 
  59   0.0000       0.490076        13.3356 
  60   0.0000       0.490076        13.3356 
  61   0.0000       0.561537        15.2802 
  62   0.0000       0.606090        16.4926 
  63   0.0000       0.606091        16.4926 
  64   0.0000       0.638437        17.3727 
  65   0.0000       0.638439        17.3728 
  66   0.0000       0.685038        18.6408 
  67   0.0000       0.692253        18.8372 
  68   0.0000       0.692259        18.8373 
  69   0.0000       0.730952        19.8902 
  70   0.0000       0.730952        19.8902 
  71   0.0000       0.779253        21.2046 
  72   0.0000       0.779256        21.2046 
  73   0.0000       0.781305        21.2604 
  74   0.0000       0.837022        22.7765 
  75   0.0000       0.837022        22.7765 
  76   0.0000       0.913386        24.8545 
  77   0.0000       0.934500        25.4290 
  78   0.0000       0.934500        25.4290 
  79   0.0000       0.960781        26.1442 
  80   0.0000       0.986222        26.8365 
  81   0.0000       0.986225        26.8365 
  82   0.0000       1.212194        32.9855 
  83   0.0000       1.212194        32.9855 
  84   0.0000       1.225648        33.3516 
  85   0.0000       1.467724        39.9388 
  86   0.0000       1.467724        39.9388 
  87   0.0000       1.482880        40.3512 
  88   0.0000       1.482894        40.3516 
  89   0.0000       1.532495        41.7013 
  90   0.0000       1.591402        43.3042 
  91   0.0000       1.591402        43.3042 
  92   0.0000       1.675198        45.5844 
  93   0.0000       1.675203        45.5846 
  94   0.0000       1.721829        46.8533 
  95   0.0000       1.721829        46.8533 
  96   0.0000       1.794671        48.8355 
  97   0.0000       1.824059        49.6352 
  98   0.0000       1.824074        49.6356 
  99   0.0000       1.892223        51.4900 
 100   0.0000       1.892223        51.4900 
 101   0.0000       1.922412        52.3115 
 102   0.0000       1.922442        52.3123 
 103   0.0000       2.036960        55.4285 
 104   0.0000       2.061748        56.1030 
 105   0.0000       2.061748        56.1030 
 106   0.0000       2.142776        58.3079 
 107   0.0000       2.201106        59.8951 
 108   0.0000       2.201106        59.8951 
 109   0.0000       2.221029        60.4373 
 110   0.0000       2.221029        60.4373 
 111   0.0000       2.285177        62.1828 
 112   0.0000       2.308532        62.8183 
 113   0.0000       2.308569        62.8194 
 114   0.0000       2.356421        64.1215 
 115   0.0000       2.356421        64.1215 
 116   0.0000       2.524950        68.7074 
 117   0.0000       2.732421        74.3530 
 118   0.0000       2.732421        74.3530 
 119   0.0000       2.742325        74.6225 
 120   0.0000       2.985324        81.2348 
 121   0.0000       2.985340        81.2352 
 122   0.0000       3.219669        87.6116 
 123   0.0000       3.219669        87.6116 
 124   0.0000       3.547411        96.5300 
 125   0.0000       3.704467       100.8037 
 126   0.0000       5.045481       137.2945 
 127   0.0000       5.045495       137.2949 
 128   0.0000       5.060450       137.7019 
 129   0.0000       5.060450       137.7019 
 130   0.0000       5.186956       141.1442 
 131   0.0000       5.186956       141.1442 
 132   0.0000       5.329348       145.0189 
 133   0.0000       5.330812       145.0588 
 134   0.0000       5.330812       145.0588 
 135   0.0000       5.349163       145.5581 
 136   0.0000       5.349219       145.5597 
 137   0.0000       5.396816       146.8548 
 138   0.0000       5.396818       146.8549 
 139   0.0000       5.505297       149.8068 
 140   0.0000       5.505297       149.8068 
 141   0.0000       5.511744       149.9822 
 142   0.0000       5.814983       158.2337 

                    ********************************
                    * MULLIKEN POPULATION ANALYSIS *
                    ********************************

--------------------------------------------
MULLIKEN ATOMIC CHARGES AND SPIN POPULATIONS
--------------------------------------------
   0 V :    0.158084    3.331925
   1 S :   -0.158084   -0.331925
Sum of atomic charges         :   -0.0000000
Sum of atomic spin populations:    3.0000000

-----------------------------------------------------
MULLIKEN REDUCED ORBITAL CHARGES AND SPIN POPULATIONS
-----------------------------------------------------
CHARGE
  0 V s       :     6.777739  s :     6.777739
      pz      :     4.117568  p :    12.299481
      px      :     4.090956
      py      :     4.090956
      dz2     :     0.964093  d :     3.741058
      dxz     :     0.390777
      dyz     :     0.390777
      dx2y2   :     0.997706
      dxy     :     0.997706
      f0      :     0.002176  f :     0.019027
      f+1     :     0.008287
      f-1     :     0.008287
      f+2     :     0.000139
      f-2     :     0.000139
      f+3     :     0.000000
      f-3     :     0.000000
      g0      :     0.001047  g :     0.004612
      g+1     :     0.001782
      g-1     :     0.001782
      g+2     :     0.000001
      g-2     :     0.000001
      g+3     :     0.000000
      g-3     :     0.000000
      g+4     :     0.000000
      g-4     :     0.000000
  1 S s       :     5.805734  s :     5.805734
      pz      :     3.327253  p :    10.320714
      px      :     3.496730
      py      :     3.496730
      dz2     :     0.003578  d :     0.030183
      dxz     :     0.011687
      dyz     :     0.011687
      dx2y2   :     0.001616
      dxy     :     0.001616
      f0      :     0.000813  f :     0.001452
      f+1     :    -0.000219
      f-1     :    -0.000219
      f+2     :     0.000539
      f-2     :     0.000539
      f+3     :     0.000000
      f-3     :     0.000000

SPIN
  0 V s       :     0.335819  s :     0.335819
      pz      :    -0.007308  p :    -0.016045
      px      :    -0.004368
      py      :    -0.004368
      dz2     :     0.684696  d :     3.008930
      dxz     :     0.164411
      dyz     :     0.164411
      dx2y2   :     0.997706
      dxy     :     0.997706
      f0      :     0.000369  f :     0.003541
      f+1     :     0.001447
      f-1     :     0.001447
      f+2     :     0.000139
      f-2     :     0.000139
      f+3     :    -0.000000
      f-3     :    -0.000000
      g0      :    -0.000153  g :    -0.000320
      g+1     :    -0.000084
      g-1     :    -0.000084
      g+2     :     0.000001
      g-2     :     0.000001
      g+3     :    -0.000000
      g-3     :    -0.000000
      g+4     :    -0.000000
      g-4     :     0.000000
  1 S s       :     0.013715  s :     0.013715
      pz      :    -0.032858  p :    -0.368722
      px      :    -0.167932
      py      :    -0.167932
      dz2     :     0.004588  d :     0.019402
      dxz     :     0.005791
      dyz     :     0.005791
      dx2y2   :     0.001616
      dxy     :     0.001616
      f0      :     0.001132  f :     0.003680
      f+1     :     0.000735
      f-1     :     0.000735
      f+2     :     0.000539
      f-2     :     0.000539
      f+3     :    -0.000000
      f-3     :    -0.000000


                     *******************************
                     * LOEWDIN POPULATION ANALYSIS *
                     *******************************

-------------------------------------------
LOEWDIN ATOMIC CHARGES AND SPIN POPULATIONS
-------------------------------------------
   0 V :    0.067157    3.154251
   1 S :   -0.067157   -0.154251

----------------------------------------------------
LOEWDIN REDUCED ORBITAL CHARGES AND SPIN POPULATIONS
----------------------------------------------------
CHARGE
  0 V s       :     6.378286  s :     6.378286
      pz      :     4.192205  p :    12.286390
      px      :     4.047093
      py      :     4.047093
      dz2     :     1.097627  d :     3.968922
      dxz     :     0.457093
      dyz     :     0.457093
      dx2y2   :     0.978554
      dxy     :     0.978554
      f0      :     0.100837  f :     0.256834
      f+1     :     0.076758
      f-1     :     0.076758
      f+2     :     0.001241
      f-2     :     0.001241
      f+3     :     0.000000
      f-3     :     0.000000
      g0      :     0.014694  g :     0.042410
      g+1     :     0.013756
      g-1     :     0.013756
      g+2     :     0.000102
      g-2     :     0.000102
      g+3     :     0.000000
      g-3     :     0.000000
      g+4     :     0.000000
      g-4     :     0.000000
  1 S s       :     5.418776  s :     5.418776
      pz      :     3.520140  p :    10.163280
      px      :     3.321570
      py      :     3.321570
      dz2     :     0.170104  d :     0.275522
      dxz     :     0.044616
      dyz     :     0.044616
      dx2y2   :     0.008093
      dxy     :     0.008093
      f0      :     0.107331  f :     0.209579
      f+1     :     0.039115
      f-1     :     0.039115
      f+2     :     0.012010
      f-2     :     0.012009
      f+3     :     0.000000
      f-3     :     0.000000

SPIN
  0 V s       :     0.306858  s :     0.306858
      pz      :    -0.001839  p :    -0.028434
      px      :    -0.013298
      py      :    -0.013298
      dz2     :     0.657576  d :     2.898406
      dxz     :     0.141861
      dyz     :     0.141861
      dx2y2   :     0.978554
      dxy     :     0.978554
      f0      :     0.000221  f :    -0.017964
      f+1     :    -0.010334
      f-1     :    -0.010334
      f+2     :     0.001241
      f-2     :     0.001241
      f+3     :    -0.000000
      f-3     :    -0.000000
      g0      :    -0.000464  g :    -0.004616
      g+1     :    -0.002178
      g-1     :    -0.002178
      g+2     :     0.000102
      g-2     :     0.000102
      g+3     :    -0.000000
      g-3     :    -0.000000
      g+4     :    -0.000000
      g-4     :     0.000000
  1 S s       :     0.017444  s :     0.017444
      pz      :     0.003954  p :    -0.253364
      px      :    -0.128659
      py      :    -0.128659
      dz2     :     0.012321  d :     0.046996
      dxz     :     0.009245
      dyz     :     0.009245
      dx2y2   :     0.008093
      dxy     :     0.008093
      f0      :     0.003929  f :     0.034674
      f+1     :     0.003363
      f-1     :     0.003363
      f+2     :     0.012010
      f-2     :     0.012009
      f+3     :    -0.000000
      f-3     :    -0.000000


                      *****************************
                      * MAYER POPULATION ANALYSIS *
                      *****************************

  NA   - Mulliken gross atomic population
  ZA   - Total nuclear charge
  QA   - Mulliken gross atomic charge
  VA   - Mayer's total valence
  BVA  - Mayer's bonded valence
  FA   - Mayer's free valence

  ATOM       NA         ZA         QA         VA         BVA        FA
  0 V     22.8419    23.0000     0.1581     5.5111     2.5557     2.9554
  1 S     16.1581    16.0000    -0.1581     2.6217     2.5557     0.0660

  Mayer bond orders larger than 0.100000
B(  0-V ,  1-S ) :   2.5557 

-------
TIMINGS
-------

Total SCF time: 0 days 0 hours 8 min 32 sec 

Total time                  ....     512.198 sec
Sum of individual times     ....     511.841 sec  ( 99.9%)

Fock matrix formation       ....     511.311 sec  ( 99.8%)
  XC integration            ....       1.252 sec  (  0.2% of F)
    Basis function eval.    ....       0.165 sec  ( 13.2% of XC)
    Density eval.           ....       0.190 sec  ( 15.2% of XC)
    XC-Functional eval.     ....       0.040 sec  (  3.2% of XC)
    XC-Potential eval.      ....       0.542 sec  ( 43.3% of XC)
Diagonalization             ....       0.169 sec  (  0.0%)
Density matrix formation    ....       0.021 sec  (  0.0%)
Population analysis         ....       0.007 sec  (  0.0%)
Initial guess               ....       0.097 sec  (  0.0%)
Orbital Transformation      ....       0.000 sec  (  0.0%)
Orbital Orthonormalization  ....       0.000 sec  (  0.0%)
DIIS solution               ....       0.059 sec  (  0.0%)
Grid generation             ....       0.178 sec  (  0.0%)

-------------------------   --------------------
FINAL SINGLE POINT ENERGY     -1342.102575598869
-------------------------   --------------------


                            ***************************************
                            *     ORCA property calculations      *
                            ***************************************

                                    ---------------------
                                    Active property flags
                                    ---------------------
   (+) Dipole Moment


------------------------------------------------------------------------------
                       ORCA ELECTRIC PROPERTIES CALCULATION
------------------------------------------------------------------------------

Dipole Moment Calculation                       ... on
Quadrupole Moment Calculation                   ... off
Polarizability Calculation                      ... off
GBWName                                         ... 18_VS.gbw
Electron density file                           ... 18_VS.scfp
The origin for moment calculation is the CENTER OF MASS  = ( 0.000000,  0.000000  1.447902)

-------------
DIPOLE MOMENT
-------------
                                X             Y             Z
Electronic contribution:     -0.00001       0.00000      -6.19644
Nuclear contribution   :      0.00000       0.00000       3.63475
                        -----------------------------------------
Total Dipole Moment    :     -0.00001       0.00000      -2.56169
                        -----------------------------------------
Magnitude (a.u.)       :      2.56169
Magnitude (Debye)      :      6.51130



--------------------
Rotational spectrum 
--------------------
 
Rotational constants in cm-1:     0.000000     0.202740     0.202740 
Rotational constants in MHz :     0.000000  6078.002656  6078.002656 

 Dipole components along the rotational axes: 
x,y,z [a.u.] :    -2.561691     0.000002    -0.000007 
x,y,z [Debye]:    -6.511301     0.000006    -0.000017 

 

Timings for individual modules:

Sum of individual times         ...      515.973 sec (=   8.600 min)
GTO integral calculation        ...        3.284 sec (=   0.055 min)   0.6 %
SCF iterations                  ...      512.689 sec (=   8.545 min)  99.4 %
                             ****ORCA TERMINATED NORMALLY****
TOTAL RUN TIME: 0 days 0 hours 8 minutes 36 seconds 608 msec
