
                                 *****************
                                 * O   R   C   A *
                                 *****************

           --- An Ab Initio, DFT and Semiempirical electronic structure package ---

                  #######################################################
                  #                        -***-                        #
                  #          Department of theory and spectroscopy      #
                  #               Directorship: Frank Neese             #
                  #        Max Planck Institute fuer Kohlenforschung    #
                  #                Kaiser Wilhelm Platz 1               #
                  #                 D-45470 Muelheim/Ruhr               #
                  #                      Germany                        #
                  #                                                     #
                  #                  All rights reserved                #
                  #                        -***-                        #
                  #######################################################


                         Program Version 4.2.0 -  RELEASE  -


 With contributions from (in alphabetic order):
   Daniel Aravena         : Magnetic Suceptibility
   Michael Atanasov       : Ab Initio Ligand Field Theory (pilot matlab implementation)
   Alexander A. Auer      : GIAO ZORA, VPT2
   Ute Becker             : Parallelization
   Giovanni Bistoni       : ED, misc. LED, open-shell LED, HFLED
   Martin Brehm           : Molecular dynamics
   Dmytro Bykov           : SCF Hessian
   Vijay G. Chilkuri      : MRCI spin determinant printing, contributions to CSF-ICE
   Dipayan Datta          : RHF DLPNO-CCSD density
   Achintya Kumar Dutta   : EOM-CC, STEOM-CC
   Dmitry Ganyushin       : Spin-Orbit,Spin-Spin,Magnetic field MRCI
   Miquel Garcia          : C-PCM Hessian, Gaussian charge scheme
   Yang Guo               : DLPNO-NEVPT2, CIM, IAO-localization
   Andreas Hansen         : Spin unrestricted coupled pair/coupled cluster methods
   Benjamin Helmich-Paris : CASSCF linear response (MC-RPA)
   Lee Huntington         : MR-EOM, pCC
   Robert Izsak           : Overlap fitted RIJCOSX, COSX-SCS-MP3, EOM
   Christian Kollmar      : KDIIS, OOCD, Brueckner-CCSD(T), CCSD density
   Simone Kossmann        : Meta GGA functionals, TD-DFT gradient, OOMP2, MP2 Hessian
   Martin Krupicka        : AUTO-CI
   Lucas Lang             : DCDCAS
   Dagmar Lenk            : GEPOL surface, SMD
   Dimitrios Liakos       : Extrapolation schemes; Compound Job, initial MDCI parallelization
   Dimitrios Manganas     : Further ROCIS development; embedding schemes
   Dimitrios Pantazis     : SARC Basis sets
   Taras Petrenko         : DFT Hessian,TD-DFT gradient, ASA, ECA, R-Raman, ABS, FL, XAS/XES, NRVS
   Peter Pinski           : DLPNO-MP2, DLPNO-MP2 Gradient
   Christoph Reimann      : Effective Core Potentials
   Marius Retegan         : Local ZFS, SOC
   Christoph Riplinger    : Optimizer, TS searches, QM/MM, DLPNO-CCSD(T), (RO)-DLPNO pert. Triples
   Tobias Risthaus        : Range-separated hybrids, TD-DFT gradient, RPA, STAB
   Michael Roemelt        : Original ROCIS implementation
   Masaaki Saitow         : Open-shell DLPNO-CCSD energy and density
   Barbara Sandhoefer     : DKH picture change effects
   Avijit Sen             : IP-ROCIS
   Kantharuban Sivalingam : CASSCF convergence, NEVPT2, FIC-MRCI
   Bernardo de Souza      : ESD, SOC TD-DFT
   Georgi Stoychev        : AutoAux, RI-MP2 NMR
   Willem Van den Heuvel  : Paramagnetic NMR
   Boris Wezisla          : Elementary symmetry handling
   Frank Wennmohs         : Technical directorship


 We gratefully acknowledge several colleagues who have allowed us to
 interface, adapt or use parts of their codes:
   Stefan Grimme, W. Hujo, H. Kruse,             : VdW corrections, initial TS optimization,
                  C. Bannwarth                     DFT functionals, gCP, sTDA/sTD-DF
   Ed Valeev, F. Pavosevic, A. Kumar             : LibInt (2-el integral package), F12 methods
   Garnet Chan, S. Sharma, J. Yang, R. Olivares  : DMRG
   Ulf Ekstrom                                   : XCFun DFT Library
   Mihaly Kallay                                 : mrcc  (arbitrary order and MRCC methods)
   Andreas Klamt, Michael Diedenhofen            : otool_cosmo (COSMO solvation model)
   Jiri Pittner, Ondrej Demel                    : Mk-CCSD
   Frank Weinhold                                : gennbo (NPA and NBO analysis)
   Christopher J. Cramer and Donald G. Truhlar   : smd solvation model
   Lars Goerigk                                  : TD-DFT with DH, B97 family of functionals
   V. Asgeirsson, H. Jonsson                     : NEB implementation
   FAccTs GmbH                                   : IRC, NEB, NEB-TS, Multilevel, MM, QM/MM, CI optimization
   S Lehtola, MJT Oliveira, MAL Marques          : LibXC Library


 Your calculation uses the libint2 library for the computation of 2-el integrals
 For citations please refer to: http://libint.valeyev.net

 Your ORCA version has been built with support for libXC version: 4.2.3
 For citations please refer to: https://tddft.org/programs/libxc/

 This ORCA versions uses:
   CBLAS   interface :  Fast vector & matrix operations
   LAPACKE interface :  Fast linear algebra routines
   SCALAPACK package :  Parallel linear algebra routines


Your calculation utilizes the DFT-NL dispersion correction.
Cite in your paper:
Vydrov, O. A.; Van Voorhis, T. J. Chem. Phys. 2010, 133, 244103
Hujo, W.; Grimme, S. J. Chem. Theory Comput. 2011, 7, 3866 
   

----- Orbital basis set information -----
Your calculation utilizes the basis: aug-cc-pVTZ 
    H, B-Ne : Obtained from the ccRepo (grant-hill.group.shef.ac.uk/ccrepo) Feb. 2017
              R. A. Kendall, T. H. Dunning, Jr., R. J. Harrison, J. Chem. Phys. 96, 6796 (1992)
         He : Obtained from the ccRepo (grant-hill.group.shef.ac.uk/ccrepo) Feb. 2017
              D. E. Woon, T. H. Dunning, Jr., J. Chem. Phys. 100, 2975 (1994)
  Li-Be, Na : Obtained from the ccRepo (grant-hill.group.shef.ac.uk/ccrepo) Feb. 2017
              B. P. Prascher, D. E. Woon, K. A. Peterson, T. H. Dunning, Jr., A. K. Wilson, Theor. Chem. Acc. 128, 69 (2011)
         Mg : Obtained from the Peterson Research Group Website (tyr0.chem.wsu.edu/~kipeters) Feb. 2017
              B. P. Prascher, D. E. Woon, K. A. Peterson, T. H. Dunning, Jr., A. K. Wilson, Theor. Chem. Acc. 128, 69 (2011)
      Al-Ar : Obtained from the ccRepo (grant-hill.group.shef.ac.uk/ccrepo) Feb. 2017
              D. E. Woon, T. H. Dunning, Jr., J. Chem. Phys. 98, 1358 (1993)
      Sc-Zn : Obtained from the ccRepo (grant-hill.group.shef.ac.uk/ccrepo) Feb. 2017
              N. B. Balabanov, K. A. Peterson, J. Chem. Phys. 123, 064107 (2005)
              N. B. Balabanov, K. A. Peterson, J. Chem. Phys. 125, 074110 (2006)
      Ga-Kr : Obtained from the ccRepo (grant-hill.group.shef.ac.uk/ccrepo) Feb. 2017
              A. K. Wilson, D. E. Woon, K. A. Peterson, T. H. Dunning, Jr., J. Chem. Phys. 110, 7667 (1999)
     Ag, Au : Obtained from the Peterson Research Group Website (tyr0.chem.wsu.edu/~kipeters) Feb. 2017
              K. A. Peterson, C. Puzzarini, Theor. Chem. Acc. 114, 283 (2005)

----- AuxJK basis set information -----
Your calculation utilizes the auxiliary basis: def2/JK
   H-Ba, Hf-Rn: F. Weigend, J. Comput. Chem. 29, 167 (2008).

================================================================================
                                        WARNINGS
                       Please study these warnings very carefully!
================================================================================


WARNING: your system is open-shell and RHF/RKS was chosen
  ===> : WILL SWITCH to UHF/UKS


INFO   : the flag for use of LIBINT has been found!

================================================================================
                                       INPUT FILE
================================================================================
NAME = 19_CrH.in
|  1> #
|  2> # 19_CrH wb97m-v/aug-cc-pvtz
|  3> #
|  4> ! wb97m-v aug-cc-pvtz def2/jk grid4 nofinalgrid
|  5> 
|  6> *xyz 0 6
|  7>   Cr  0.00000000000000      0.00000000000000      0.17036458455703
|  8>   H   0.00000000000000      0.00000000000000      1.82963541544297
|  9> *
| 10> 
| 11> %pal
| 12> nprocs 24
| 13> end
| 14> 
| 15> 
| 16>                          ****END OF INPUT****
================================================================================

                       ****************************
                       * Single Point Calculation *
                       ****************************

---------------------------------
CARTESIAN COORDINATES (ANGSTROEM)
---------------------------------
  Cr     0.000000    0.000000    0.170365
  H      0.000000    0.000000    1.829635

----------------------------
CARTESIAN COORDINATES (A.U.)
----------------------------
  NO LB      ZA    FRAG     MASS         X           Y           Z
   0 Cr   24.0000    0    52.000    0.000000    0.000000    0.321942
   1 H     1.0000    0     1.008    0.000000    0.000000    3.457510

--------------------------------
INTERNAL COORDINATES (ANGSTROEM)
--------------------------------
 Cr     0   0   0     0.000000000000     0.00000000     0.00000000
 H      1   0   0     1.659270830886     0.00000000     0.00000000

---------------------------
INTERNAL COORDINATES (A.U.)
---------------------------
 Cr     0   0   0     0.000000000000     0.00000000     0.00000000
 H      1   0   0     3.135567452378     0.00000000     0.00000000

---------------------
BASIS SET INFORMATION
---------------------
There are 2 groups of distinct atoms

 Group   1 Type Cr  : 116s77p23d3f2g contracted to 8s7p5d3f2g pattern {19191919191911/151515151511/77711/111/11}
 Group   2 Type H   : 6s3p2d contracted to 4s3p2d pattern {3111/111/11}

Atom   0Cr   basis set group =>   1
Atom   1H    basis set group =>   2
----------------------------------
AUXILIARY/JK BASIS SET INFORMATION
----------------------------------
There are 2 groups of distinct atoms

 Group   1 Type Cr  : 19s14p12d10f7g3h1i contracted to 16s13p11d9f5g3h1i pattern {4111111111111111/2111111111111/21111111111/211111111/31111/111/1}
 Group   2 Type H   : 4s2p2d contracted to 2s2p2d pattern {31/11/11}

Atom   0Cr   basis set group =>   1
Atom   1H    basis set group =>   2


           ************************************************************
           *        Program running with 24 parallel MPI-processes    *
           *              working on a common directory               *
           ************************************************************
------------------------------------------------------------------------------
                           ORCA GTO INTEGRAL CALCULATION
------------------------------------------------------------------------------

                         BASIS SET STATISTICS AND STARTUP INFO

 # of primitive gaussian shells          ...  232
 # of primitive gaussian functions       ...  526
 # of contracted shells                  ...   34
 # of contracted basis functions         ...  116
 Highest angular momentum                ...    4
 Maximum contraction depth               ...   19
 Integral package used                   ... LIBINT
 Integral threshhold            Thresh   ...  1.000e-10
 Primitive cut-off              TCut     ...  1.000e-11


------------------------------ INTEGRAL EVALUATION ----------------------------


 * One electron integrals 
 Pre-screening matrix                    ... done
 Shell pair data                         ... done (   0.001 sec)



           ************************************************************
           *        Program running with 24 parallel MPI-processes    *
           *              working on a common directory               *
           ************************************************************
-------------------------------------------------------------------------------
                                 ORCA SCF
-------------------------------------------------------------------------------

------------
SCF SETTINGS
------------
Hamiltonian:
 Density Functional     Method          .... DFT(GTOs)
 Exchange Functional    Exchange        .... WB97M-V
 Correlation Functional Correlation     .... WB97M-V
 Gradients option       PostSCFGGA      .... off
 Hybrid DFT is turned on
   Fraction HF Exchange ScalHFX         ....  0.150000
   Scaling of DF-GGA-X  ScalDFX         ....  0.000000
   Scaling of DF-GGA-C  ScalDFC         ....  1.000000
   Scaling of DF-LDA-C  ScalLDAC        ....  1.000000
   Perturbative correction              ....  0.000000
   Density functional embedding theory  .... OFF
 Long-range corrected/Screened/Range-Separated Hybrid DFT is turned on
   Amount of maximum screened exact exchange              ....  0.850000
   Range separation parameter mu (erf(mu*r12)/r12)        ....  0.300000
   NL short-range parameter             ....  6.000000
   NL long-range parameter              ....  0.010000


General Settings:
 Integral files         IntName         .... 19_CrH
 Hartree-Fock type      HFTyp           .... UHF
 Total Charge           Charge          ....    0
 Multiplicity           Mult            ....    6
 Number of Electrons    NEL             ....   25
 Basis Dimension        Dim             ....  116
 Nuclear Repulsion      ENuc            ....      7.6541169547 Eh

Convergence Acceleration:
 DIIS                   CNVDIIS         .... on
   Start iteration      DIISMaxIt       ....    12
   Startup error        DIISStart       ....  0.200000
   # of expansion vecs  DIISMaxEq       ....     5
   Bias factor          DIISBfac        ....   1.050
   Max. coefficient     DIISMaxC        ....  10.000
 Newton-Raphson         CNVNR           .... off
 SOSCF                  CNVSOSCF        .... off
 Level Shifting         CNVShift        .... on
   Level shift para.    LevelShift      ....    0.2500
   Turn off err/grad.   ShiftErr        ....    0.0010
 Zerner damping         CNVZerner       .... off
 Static damping         CNVDamp         .... on
   Fraction old density DampFac         ....    0.7000
   Max. Damping (<1)    DampMax         ....    0.9800
   Min. Damping (>=0)   DampMin         ....    0.0000
   Turn off err/grad.   DampErr         ....    0.1000
 Fernandez-Rico         CNVRico         .... off

SCF Procedure:
 Maximum # iterations   MaxIter         ....   125
 SCF integral mode      SCFMode         .... Direct
   Integral package                     .... LIBINT
 Reset frequency        DirectResetFreq ....    20
 Integral Threshold     Thresh          ....  1.000e-10 Eh
 Primitive CutOff       TCut            ....  1.000e-11 Eh

Convergence Tolerance:
 Convergence Check Mode ConvCheckMode   .... Total+1el-Energy
 Convergence forced     ConvForced      .... 0
 Energy Change          TolE            ....  1.000e-06 Eh
 1-El. energy change                    ....  1.000e-03 Eh
 DIIS Error             TolErr          ....  1.000e-06


Diagonalization of the overlap matrix:
Smallest eigenvalue                        ... 8.982e-05
Time for diagonalization                   ...    0.003 sec
Threshold for overlap eigenvalues          ... 1.000e-08
Number of eigenvalues below threshold      ... 0
Time for construction of square roots      ...    0.002 sec
Total time needed                          ...    0.005 sec

-------------------
DFT GRID GENERATION
-------------------

General Integration Accuracy     IntAcc      ...  4.670
Radial Grid Type                 RadialGrid  ... Gauss-Chebyshev
Angular Grid (max. acc.)         AngularGrid ... Lebedev-302
Angular grid pruning method      GridPruning ... 3 (G Style)
Weight generation scheme         WeightScheme... Becke
Basis function cutoff            BFCut       ...    1.0000e-10
Integration weight cutoff        WCut        ...    1.0000e-14
Grids for H and He will be reduced by one unit

# of grid points (after initial pruning)     ...  13058 (   0.0 sec)
# of grid points (after weights+screening)   ...  13018 (   0.0 sec)
nearest neighbour list constructed           ...    0.0 sec
Grid point re-assignment to atoms done       ...    0.0 sec
Grid point division into batches done        ...    0.1 sec
Reduced shell lists constructed in    0.1 sec

Total number of grid points                  ...    13018
Total number of batches                      ...      205
Average number of points per batch           ...       63
Average number of grid points per atom       ...     6509
Average number of shells per batch           ...    14.90 (43.82%)
Average number of basis functions per batch  ...    36.70 (31.64%)
Average number of large shells per batch     ...     8.60 (57.72%)
Average number of large basis fcns per batch ...    22.20 (60.49%)
Maximum spatial batch extension              ...  31.41, 28.57, 18.88 au
Average spatial batch extension              ...   1.01,  0.93,  0.72 au

Time for grid setup =    0.120 sec

------------------------------
INITIAL GUESS: MODEL POTENTIAL
------------------------------
Loading Hartree-Fock densities                     ... done
Calculating cut-offs                               ... done
Setting up the integral package                    ... done
Initializing the effective Hamiltonian             ... done
Starting the Coulomb interaction                   ... done (   0.0 sec)
Reading the grid                                   ... done
Mapping shells                                     ... done
Starting the XC term evaluation                    ... done (   0.0 sec)
  promolecular density results
     # of electrons  =     24.999514660
     EX              =    -47.468009517
     EC              =     -1.033786700
     EX+EC           =    -48.501796216
Transforming the Hamiltonian                       ... done (   0.0 sec)
Diagonalizing the Hamiltonian                      ... done (   0.0 sec)
Back transforming the eigenvectors                 ... done (   0.0 sec)
Now organizing SCF variables                       ... done
                      ------------------
                      INITIAL GUESS DONE (   0.2 sec)
                      ------------------
--------------
SCF ITERATIONS
--------------
ITER       Energy         Delta-E        Max-DP      RMS-DP      [F,P]     Damp
               ***  Starting incremental Fock matrix formation  ***
  0  -1044.9965112482   0.000000000000 9.03767215  0.08522755  0.1199963 0.7000
  1  -1044.9294239040   0.067087344214 5.93447097  0.06710718  0.0445748 0.7000
                               ***Turning on DIIS***
  2  -1044.9534208515  -0.023996947469 6.36612534  0.07866701  0.0328934 0.0000
  3  -1045.0521651006  -0.098744249166 0.99451387  0.01126435  0.0163352 0.0000
  4  -1045.0572289611  -0.005063860447 0.10330515  0.00190544  0.0108039 0.0000
  5  -1045.0587560963  -0.001527135219 0.02893507  0.00068667  0.0080571 0.0000
  6  -1045.0595857538  -0.000829657519 0.02045920  0.00035630  0.0033573 0.0000
  7  -1045.0598916772  -0.00030592338227.94295158  0.44355435  0.0028213 0.0000
  8  -1044.6846664340   0.375225243247 1.71108512  0.02839096  0.0974482 0.0000
  9  -1044.6861993311  -0.001532897124 0.36758705  0.00579767  0.0971654 0.0000
 10  -1044.6864085188  -0.000209187732 2.63396379  0.04178523  0.0971066 0.0000
 11  -1044.6832604224   0.003148096436 0.39957184  0.00658118  0.0973709 0.0000
 12  -1044.6835353655  -0.00027494310226.09754152  0.44073769  0.0973519 0.0000
 13  -1044.8138208336  -0.130285468079 0.87537208  0.00848744  0.1972935 0.7000
 14  -1044.8319616402  -0.018140806684 0.82201618  0.00765405  0.1884862 0.7000
 15  -1044.8517442210  -0.019782580743 0.72171928  0.00662846  0.1787746 0.7000
 16  -1044.8717495413  -0.020005320356 0.63464164  0.00585425  0.1694594 0.7000
 17  -1044.8920518848  -0.020302343484 0.94793489  0.00825428  0.1611236 0.7000
 18  -1044.9301655718  -0.038113686976 0.89227248  0.00852538  0.1338117 0.7000
 19  -1044.9605864417  -0.030420869926 2.17342208  0.01998992  0.0997543 0.0000
               *** Restarting incremental Fock matrix formation ***
                                   *** Resetting DIIS ***
 20  -1045.0551190018  -0.094532560100 0.48027242  0.00668738  0.0332600 0.0000
 21  -1045.0589150109  -0.003796009049 0.32374728  0.00512338  0.0105220 0.0000
 22  -1045.0597982167  -0.000883205822 0.03750866  0.00077111  0.0086576 0.0000
 23  -1045.0599196410  -0.00012142434921.12535553  0.23756412  0.0056521 0.0000
 24  -1044.6650012061   0.394918434931 0.20018350  0.00258119  0.1013289 0.7000
 25  -1044.6656770733  -0.000675867163 0.29362768  0.00417298  0.1009599 0.7000
 26  -1044.6665808831  -0.000903809797 0.42550969  0.00538531  0.1004274 0.7000
 27  -1044.6675929736  -0.001012090556 0.28348051  0.00357234  0.1002682 0.7000
 28  -1044.6682740818  -0.000681108190 4.74202583  0.05656937  0.1001910 0.7000
 29  -1044.7211399676  -0.05286588576515.14354918  0.17239525  0.0886652 0.0000
 30  -1044.9957752121  -0.274635244557 6.35644746  0.06267253  0.0877501 0.0000
 31  -1044.8884309667   0.107344245433 0.70224800  0.00790822  0.1760320 0.7000
 32  -1044.8991681652  -0.010737198460 1.00467725  0.01057944  0.1720882 0.7000
 33  -1044.9177630807  -0.018594915512 1.45086464  0.01368125  0.1627458 0.7000
 34  -1044.9493601105  -0.031597029820 1.00271140  0.00956820  0.1278794 0.7000
 35  -1044.9774501828  -0.028090072285 2.33916312  0.02237389  0.0995349 0.0000
 36  -1045.0573630993  -0.079912916545 0.20947615  0.00335255  0.0268335 0.0000
 37  -1045.0598797329  -0.002516633552 0.03553779  0.00083952  0.0103228 0.0000
 38  -1045.0602231495  -0.000343416661 0.01859048  0.00045566  0.0079014 0.0000
 39  -1045.0602444251  -0.000021275554 0.00760325  0.00016010  0.0043234 0.0000
               *** Restarting incremental Fock matrix formation ***
                                   *** Resetting DIIS ***
 40  -1045.0602029273   0.000041497801 0.00385751  0.00008375  0.0026358 0.0000
 41  -1045.0601870740   0.00001585326647.23120166  0.70178601  0.0018639 0.0000
 42  -1044.6816158011   0.378571272937 1.52242920  0.02095532  0.0997079 0.0000
 43  -1044.6807291562   0.000886644856 0.25447358  0.00372271  0.0996253 0.0000
 44  -1044.6804838684   0.000245287831 0.05413512  0.00083065  0.0995959 0.0000
 45  -1044.6803855125   0.00009835592619.57131585  0.27776579  0.0995840 0.0000
 46  -1044.6886711407  -0.00828562826231.40539404  0.63070477  0.0994438 0.0000
 47  -1044.2595692830   0.429101857742 2.11545913  0.03366958  0.1262828 0.7000
 48  -1044.2890082784  -0.029438995413 1.79282321  0.02952027  0.1286681 0.7000
 49  -1044.3174459298  -0.028437651373 1.36822667  0.02287729  0.1315441 0.7000
 50  -1044.3408966161  -0.023450686324 1.06582214  0.01797534  0.1335042 0.7000
 51  -1044.3600210226  -0.019124406519 7.68172170  0.10996661  0.1355393 0.7000
 52  -1044.4947149556  -0.13469393294917.96565669  0.26375139  0.0957514 0.0000
 53  -1045.0277479686  -0.533033013013 0.87292258  0.01296890  0.0434045 0.0000
 54  -1045.0427408316  -0.014992863001 0.14612617  0.00262824  0.0282180 0.0000
 55  -1045.0492472138  -0.006506382206 0.03154077  0.00070983  0.0268254 0.0000
 56  -1045.0539381998  -0.004690986003 0.07924586  0.00187408  0.0206097 0.0000
 57  -1045.0583811141  -0.004442914346 0.03314257  0.00069413  0.0103625 0.0000
 58  -1045.0597665444  -0.001385430292 0.01901724  0.00041854  0.0056529 0.0000
 59  -1045.0600964277  -0.000329883235 0.01661095  0.00028739  0.0040707 0.0000
               *** Restarting incremental Fock matrix formation ***
                                   *** Resetting DIIS ***
 60  -1045.0601867467  -0.000090319036 0.00766949  0.00015020  0.0030710 0.0000
 61  -1045.0602092503  -0.000022503549 0.00315703  0.00007575  0.0026398 0.0000
 62  -1045.0601993201   0.000009930128 0.00511990  0.00010812  0.0022157 0.0000
 63  -1045.0601938304   0.000005489762 0.00626151  0.00011206  0.0018724 0.0000
 64  -1045.0602099464  -0.000016116006 0.01023268  0.00024051  0.0016260 0.0000
 65  -1045.0603207161  -0.000110769722 0.02440502  0.00043046  0.0011710 0.0000
 66  -1045.0606403037  -0.000319587640 0.01448701  0.00026115  0.0030071 0.0000
 67  -1045.0604957046   0.000144599100 0.01215243  0.00021371  0.0023840 0.0000
 68  -1045.0603253170   0.000170387603 0.00950363  0.00017678  0.0014853 0.0000
 69  -1045.0601899195   0.000135397505 0.00419376  0.00009673  0.0007803 0.0000
 70  -1045.0601011260   0.000088793551 0.00433226  0.00008684  0.0023268 0.0000
 71  -1045.0601082971  -0.000007171161 0.00645212  0.00016098  0.0005521 0.0000
 72  -1045.0601437347  -0.000035437538 0.00500125  0.00015731  0.0006071 0.0000
 73  -1045.0601180611   0.000025673555 0.00114780  0.00002912  0.0004531 0.0000
 74  -1045.0600980957   0.000019965462 0.00194878  0.00005220  0.0012255 0.0000
 75  -1045.0600883786   0.000009717094 0.00434630  0.00008982  0.0003255 0.0000
 76  -1045.0600560721   0.000032306483 0.00299660  0.00008634  0.0024379 0.0000
 77  -1045.0600773644  -0.000021292321 0.00507848  0.00011808  0.0002573 0.0000
 78  -1045.0600965511  -0.000019186720 0.00433841  0.00012594  0.0003470 0.0000
 79  -1045.0601847551  -0.000088203999 0.01357078  0.00025604  0.0009843 0.0000
               *** Restarting incremental Fock matrix formation ***
                                   *** Resetting DIIS ***
 80  -1045.0600547682   0.000129986883 0.00316329  0.00006516  0.0001594 0.0000
 81  -1045.0600445328   0.000010235485 0.00051032  0.00000967  0.0027602 0.0000
                 **** Energy Check signals convergence ****

               *****************************************************
               *                     SUCCESS                       *
               *           SCF CONVERGED AFTER  82 CYCLES          *
               *****************************************************


Setting up the DFT-NL grid :

General Integration Accuracy     IntAcc      ...  4.340
Radial Grid Type                 RadialGrid  ... Gauss-Chebyshev
Angular Grid (max. acc.)         AngularGrid ... Lebedev-110
Angular grid pruning method      GridPruning ... 3 (G Style)
Weight generation scheme         WeightScheme... Becke
Basis function cutoff            BFCut       ...    1.0000e-10
Integration weight cutoff        WCut        ...    1.0000e-14
Grids for H and He will be reduced by one unit

# of grid points (after initial pruning)     ...   3766 (   0.0 sec)
# of grid points (after weights+screening)   ...   3742 (   0.0 sec)
nearest neighbour list constructed           ...    0.0 sec
Grid point re-assignment to atoms done       ...    0.0 sec
Grid point division into batches done        ...    0.0 sec
Reduced shell lists constructed in    0.0 sec

Total number of grid points                  ...     3742
Total number of batches                      ...       60
Average number of points per batch           ...       62
Average number of grid points per atom       ...     1871
Average number of shells per batch           ...    21.75 (63.97%)
Average number of basis functions per batch  ...    68.25 (58.84%)
Average number of large shells per batch     ...    15.75 (72.41%)
Average number of large basis fcns per batch ...    45.75 (67.03%)
Maximum spatial batch extension              ...  37.20, 28.73, 20.01 au
Average spatial batch extension              ...   1.28,  1.29,  0.86 au

Final grid set up in    0.0 sec

-------------------------------------------------------------------------------
                         DFT-NL dispersion correction                          
-------------------------------------------------------------------------------

SC Energy -1045.060043630 
NL    Energy 0.105605038 
SC+NL Energy -1044.954438592 
NL done in    0.0 sec
-------------------------------------------------------------------------------

----------------
TOTAL SCF ENERGY
----------------

Total Energy       :        -1044.95443859 Eh          -28434.65586 eV

Components:
Nuclear Repulsion  :            7.65411695 Eh             208.27911 eV
Electronic Energy  :        -1052.60855555 Eh          -28642.93498 eV
One Electron Energy:        -1454.07294548 Eh          -39567.33641 eV
Two Electron Energy:          401.46438994 Eh           10924.40144 eV

Virial components:
Potential Energy   :        -2088.48600937 Eh          -56830.59353 eV
Kinetic Energy     :         1043.53157078 Eh           28395.93766 eV
Virial Ratio       :            2.00136351


DFT components:
N(Alpha)           :       15.000000884320 electrons
N(Beta)            :        9.999999091633 electrons
N(Total)           :       24.999999975953 electrons
E(X)               :      -37.330645156747 Eh       
E(C)               :       -1.176863937551 Eh       
NL Energy, E(C,NL) :        0.105605038064 Eh       
E(XC)              :      -38.401904056235 Eh       
DFET-embed. en.    :        0.000000000000 Eh       

---------------
SCF CONVERGENCE
---------------

  Last Energy change         ...    9.0310e-07  Tolerance :   1.0000e-06
  Last MAX-Density change    ...    5.2358e-04  Tolerance :   1.0000e-05
  Last RMS-Density change    ...    1.4303e-05  Tolerance :   1.0000e-06
  Last DIIS Error            ...    1.9737e-03  Tolerance :   1.0000e-06

             **** THE GBW FILE WAS UPDATED (19_CrH.gbw) ****
             **** DENSITY FILE WAS UPDATED (19_CrH.scfp) ****
             **** ENERGY FILE WAS UPDATED (19_CrH.en.tmp) ****
----------------------
UHF SPIN CONTAMINATION
----------------------

Warning: in a DFT calculation there is little theoretical justification to 
         calculate <S**2> as in Hartree-Fock theory. We will do it anyways
         but you should keep in mind that the values have only limited relevance

Expectation value of <S**2>     :     8.755713
Ideal value S*(S+1) for S=2.5   :     8.750000
Deviation                       :     0.005713

             **** THE GBW FILE WAS UPDATED (19_CrH.gbw) ****
             **** DENSITY FILE WAS UPDATED (19_CrH.scfp) ****
----------------
ORBITAL ENERGIES
----------------
                 SPIN UP ORBITALS
  NO   OCC          E(Eh)            E(eV) 
   0   1.0000    -216.110573     -5880.6676 
   1   1.0000     -24.860207      -676.4806 
   2   1.0000     -21.063387      -573.1639 
   3   1.0000     -21.063386      -573.1639 
   4   1.0000     -21.063259      -573.1604 
   5   1.0000      -3.015169       -82.0469 
   6   1.0000      -1.955767       -53.2191 
   7   1.0000      -1.952961       -53.1428 
   8   1.0000      -1.952961       -53.1428 
   9   1.0000      -0.375510       -10.2181 
  10   1.0000      -0.322467        -8.7748 
  11   1.0000      -0.322466        -8.7747 
  12   1.0000      -0.316365        -8.6087 
  13   1.0000      -0.316365        -8.6087 
  14   1.0000      -0.277302        -7.5458 
  15   0.0000      -0.017406        -0.4736 
  16   0.0000       0.004784         0.1302 
  17   0.0000       0.004793         0.1304 
  18   0.0000       0.015630         0.4253 
  19   0.0000       0.029832         0.8118 
  20   0.0000       0.053513         1.4562 
  21   0.0000       0.053523         1.4564 
  22   0.0000       0.058379         1.5886 
  23   0.0000       0.060453         1.6450 
  24   0.0000       0.060454         1.6450 
  25   0.0000       0.062043         1.6883 
  26   0.0000       0.062049         1.6884 
  27   0.0000       0.083516         2.2726 
  28   0.0000       0.147569         4.0156 
  29   0.0000       0.194590         5.2951 
  30   0.0000       0.194593         5.2951 
  31   0.0000       0.207670         5.6510 
  32   0.0000       0.231041         6.2869 
  33   0.0000       0.259108         7.0507 
  34   0.0000       0.259110         7.0507 
  35   0.0000       0.264137         7.1875 
  36   0.0000       0.264137         7.1875 
  37   0.0000       0.316689         8.6176 
  38   0.0000       0.316690         8.6176 
  39   0.0000       0.323590         8.8053 
  40   0.0000       0.460496        12.5307 
  41   0.0000       0.602693        16.4001 
  42   0.0000       0.602694        16.4001 
  43   0.0000       0.605405        16.4739 
  44   0.0000       0.605405        16.4739 
  45   0.0000       0.672615        18.3028 
  46   0.0000       0.677559        18.4373 
  47   0.0000       0.677560        18.4373 
  48   0.0000       0.693610        18.8741 
  49   0.0000       0.693610        18.8741 
  50   0.0000       0.701837        19.0980 
  51   0.0000       0.753459        20.5026 
  52   0.0000       0.874275        23.7902 
  53   0.0000       0.874276        23.7903 
  54   0.0000       0.882207        24.0061 
  55   0.0000       0.882207        24.0061 
  56   0.0000       0.979131        26.6435 
  57   0.0000       0.979134        26.6436 
  58   0.0000       1.005297        27.3555 
  59   0.0000       1.015947        27.6453 
  60   0.0000       1.015947        27.6453 
  61   0.0000       1.256945        34.2032 
  62   0.0000       1.416888        38.5555 
  63   0.0000       1.416888        38.5555 
  64   0.0000       1.735573        47.2273 
  65   0.0000       1.784708        48.5644 
  66   0.0000       1.872266        50.9469 
  67   0.0000       1.872266        50.9469 
  68   0.0000       1.874962        51.0203 
  69   0.0000       1.874969        51.0205 
  70   0.0000       1.974164        53.7197 
  71   0.0000       1.974164        53.7197 
  72   0.0000       2.177826        59.2617 
  73   0.0000       2.262604        61.5686 
  74   0.0000       2.262621        61.5691 
  75   0.0000       2.263639        61.5968 
  76   0.0000       2.263639        61.5968 
  77   0.0000       2.362773        64.2943 
  78   0.0000       2.362774        64.2944 
  79   0.0000       2.397656        65.2435 
  80   0.0000       2.397657        65.2436 
  81   0.0000       2.452219        66.7283 
  82   0.0000       2.601026        70.7775 
  83   0.0000       2.601026        70.7775 
  84   0.0000       2.755705        74.9865 
  85   0.0000       2.998208        81.5854 
  86   0.0000       3.434280        93.4515 
  87   0.0000       3.434284        93.4516 
  88   0.0000       3.535572        96.2078 
  89   0.0000       3.535573        96.2078 
  90   0.0000       3.754219       102.1575 
  91   0.0000       3.754384       102.1620 
  92   0.0000       3.850166       104.7683 
  93   0.0000       4.054992       110.3419 
  94   0.0000       4.054992       110.3419 
  95   0.0000       4.196844       114.2019 
  96   0.0000       4.196844       114.2019 
  97   0.0000       4.487433       122.1092 
  98   0.0000       4.845727       131.8589 
  99   0.0000       6.286977       171.0773 
 100   0.0000       6.286997       171.0779 
 101   0.0000       6.287370       171.0880 
 102   0.0000       6.287370       171.0880 
 103   0.0000       6.392058       173.9367 
 104   0.0000       6.392059       173.9368 
 105   0.0000       6.619855       180.1354 
 106   0.0000       6.750133       183.6804 
 107   0.0000       6.750133       183.6804 
 108   0.0000       6.754693       183.8046 
 109   0.0000       6.754731       183.8056 
 110   0.0000       6.802320       185.1005 
 111   0.0000       6.802341       185.1011 
 112   0.0000       6.963117       189.4760 
 113   0.0000       6.963117       189.4760 
 114   0.0000       7.065086       192.2508 
 115   0.0000       8.053611       219.1499 

                 SPIN DOWN ORBITALS
  NO   OCC          E(Eh)            E(eV) 
   0   1.0000    -216.109351     -5880.6344 
   1   1.0000     -24.787352      -674.4981 
   2   1.0000     -21.008693      -571.6756 
   3   1.0000     -21.003392      -571.5313 
   4   1.0000     -21.003390      -571.5313 
   5   1.0000      -2.841332       -77.3166 
   6   1.0000      -1.766955       -48.0813 
   7   1.0000      -1.754866       -47.7523 
   8   1.0000      -1.754863       -47.7523 
   9   1.0000      -0.345114        -9.3910 
  10   0.0000      -0.085360        -2.3228 
  11   0.0000      -0.052534        -1.4295 
  12   0.0000      -0.045040        -1.2256 
  13   0.0000      -0.011054        -0.3008 
  14   0.0000      -0.006565        -0.1787 
  15   0.0000       0.004833         0.1315 
  16   0.0000       0.008963         0.2439 
  17   0.0000       0.018755         0.5104 
  18   0.0000       0.027022         0.7353 
  19   0.0000       0.031606         0.8600 
  20   0.0000       0.037194         1.0121 
  21   0.0000       0.058244         1.5849 
  22   0.0000       0.079058         2.1513 
  23   0.0000       0.082550         2.2463 
  24   0.0000       0.108981         2.9655 
  25   0.0000       0.111264         3.0277 
  26   0.0000       0.114680         3.1206 
  27   0.0000       0.116789         3.1780 
  28   0.0000       0.144171         3.9231 
  29   0.0000       0.162637         4.4256 
  30   0.0000       0.173322         4.7163 
  31   0.0000       0.190821         5.1925 
  32   0.0000       0.242449         6.5974 
  33   0.0000       0.252017         6.8577 
  34   0.0000       0.255470         6.9517 
  35   0.0000       0.258988         7.0474 
  36   0.0000       0.263902         7.1811 
  37   0.0000       0.305272         8.3069 
  38   0.0000       0.306937         8.3522 
  39   0.0000       0.307642         8.3714 
  40   0.0000       0.451191        12.2775 
  41   0.0000       0.536804        14.6072 
  42   0.0000       0.536804        14.6072 
  43   0.0000       0.559736        15.2312 
  44   0.0000       0.559800        15.2329 
  45   0.0000       0.641252        17.4494 
  46   0.0000       0.641469        17.4553 
  47   0.0000       0.656658        17.8686 
  48   0.0000       0.675044        18.3689 
  49   0.0000       0.676169        18.3995 
  50   0.0000       0.700479        19.0610 
  51   0.0000       0.725630        19.7454 
  52   0.0000       0.889445        24.2030 
  53   0.0000       0.890462        24.2307 
  54   0.0000       0.915377        24.9087 
  55   0.0000       0.916408        24.9367 
  56   0.0000       0.983570        26.7643 
  57   0.0000       0.984139        26.7798 
  58   0.0000       1.007019        27.4024 
  59   0.0000       1.007055        27.4034 
  60   0.0000       1.017367        27.6840 
  61   0.0000       1.274848        34.6904 
  62   0.0000       1.414529        38.4913 
  63   0.0000       1.414542        38.4917 
  64   0.0000       1.788002        48.6540 
  65   0.0000       1.795139        48.8482 
  66   0.0000       1.941517        52.8314 
  67   0.0000       1.941561        52.8326 
  68   0.0000       1.943581        52.8875 
  69   0.0000       1.943581        52.8875 
  70   0.0000       2.026628        55.1474 
  71   0.0000       2.026637        55.1476 
  72   0.0000       2.195558        59.7442 
  73   0.0000       2.276375        61.9433 
  74   0.0000       2.276390        61.9437 
  75   0.0000       2.277455        61.9727 
  76   0.0000       2.277455        61.9727 
  77   0.0000       2.374902        64.6244 
  78   0.0000       2.374913        64.6247 
  79   0.0000       2.468854        67.1809 
  80   0.0000       2.469069        67.1868 
  81   0.0000       2.521586        68.6158 
  82   0.0000       2.629543        71.5535 
  83   0.0000       2.629645        71.5563 
  84   0.0000       2.780049        75.6490 
  85   0.0000       2.994279        81.4785 
  86   0.0000       3.571924        97.1970 
  87   0.0000       3.572263        97.2062 
  88   0.0000       3.658632        99.5564 
  89   0.0000       3.658891        99.5635 
  90   0.0000       3.734681       101.6258 
  91   0.0000       3.734809       101.6293 
  92   0.0000       3.936333       107.1131 
  93   0.0000       4.049120       110.1822 
  94   0.0000       4.049125       110.1823 
  95   0.0000       4.179217       113.7223 
  96   0.0000       4.179218       113.7223 
  97   0.0000       4.486671       122.0885 
  98   0.0000       4.851893       132.0267 
  99   0.0000       6.454938       175.6478 
 100   0.0000       6.454938       175.6478 
 101   0.0000       6.460884       175.8096 
 102   0.0000       6.460913       175.8104 
 103   0.0000       6.551256       178.2687 
 104   0.0000       6.551258       178.2688 
 105   0.0000       6.759271       183.9291 
 106   0.0000       6.886133       187.3812 
 107   0.0000       6.886133       187.3812 
 108   0.0000       6.887105       187.4077 
 109   0.0000       6.887122       187.4081 
 110   0.0000       6.931422       188.6136 
 111   0.0000       6.931453       188.6144 
 112   0.0000       7.081663       192.7019 
 113   0.0000       7.081664       192.7019 
 114   0.0000       7.181269       195.4123 
 115   0.0000       8.184482       222.7111 

                    ********************************
                    * MULLIKEN POPULATION ANALYSIS *
                    ********************************

--------------------------------------------
MULLIKEN ATOMIC CHARGES AND SPIN POPULATIONS
--------------------------------------------
   0 Cr:    0.276776    5.013464
   1 H :   -0.276776   -0.013464
Sum of atomic charges         :   -0.0000000
Sum of atomic spin populations:    5.0000000

-----------------------------------------------------
MULLIKEN REDUCED ORBITAL CHARGES AND SPIN POPULATIONS
-----------------------------------------------------
CHARGE
  0 Crs       :     6.789530  s :     6.789530
      pz      :     4.090072  p :    12.094871
      px      :     4.002400
      py      :     4.002400
      dz2     :     0.835865  d :     4.830618
      dxz     :     0.997758
      dyz     :     0.997758
      dx2y2   :     0.999618
      dxy     :     0.999618
      f0      :     0.007165  f :     0.007649
      f+1     :     0.000039
      f-1     :     0.000039
      f+2     :     0.000203
      f-2     :     0.000203
      f+3     :     0.000000
      f-3     :     0.000000
      g0      :     0.000555  g :     0.000556
      g+1     :     0.000000
      g-1     :     0.000000
      g+2     :     0.000000
      g-2     :     0.000000
      g+3     :     0.000000
      g-3     :     0.000000
      g+4     :     0.000000
      g-4     :     0.000000
  1 H s       :     1.276296  s :     1.276296
      pz      :     0.000007  p :     0.001462
      px      :     0.000728
      py      :     0.000727
      dz2     :     0.000511  d :    -0.000982
      dxz     :    -0.000924
      dyz     :    -0.000924
      dx2y2   :     0.000178
      dxy     :     0.000178

SPIN
  0 Crs       :     0.281341  s :     0.281341
      pz      :     0.019722  p :     0.023647
      px      :     0.001962
      py      :     0.001962
      dz2     :     0.714127  d :     4.708717
      dxz     :     0.997677
      dyz     :     0.997677
      dx2y2   :     0.999618
      dxy     :     0.999618
      f0      :    -0.000518  f :    -0.000038
      f+1     :     0.000037
      f-1     :     0.000037
      f+2     :     0.000203
      f-2     :     0.000203
      f+3     :    -0.000000
      f-3     :    -0.000000
      g0      :    -0.000204  g :    -0.000203
      g+1     :     0.000000
      g-1     :     0.000000
      g+2     :     0.000000
      g-2     :     0.000000
      g+3     :    -0.000000
      g-3     :    -0.000000
      g+4     :    -0.000000
      g-4     :     0.000000
  1 H s       :    -0.014662  s :    -0.014662
      pz      :     0.000933  p :     0.002422
      px      :     0.000745
      py      :     0.000745
      dz2     :    -0.000739  d :    -0.001224
      dxz     :    -0.000421
      dyz     :    -0.000420
      dx2y2   :     0.000178
      dxy     :     0.000178


                     *******************************
                     * LOEWDIN POPULATION ANALYSIS *
                     *******************************

-------------------------------------------
LOEWDIN ATOMIC CHARGES AND SPIN POPULATIONS
-------------------------------------------
   0 Cr:    0.603133    4.836978
   1 H :   -0.603133    0.163022

----------------------------------------------------
LOEWDIN REDUCED ORBITAL CHARGES AND SPIN POPULATIONS
----------------------------------------------------
CHARGE
  0 Crs       :     6.666252  s :     6.666252
      pz      :     4.076943  p :    11.987516
      px      :     3.955286
      py      :     3.955286
      dz2     :     0.842097  d :     4.710215
      dxz     :     0.941348
      dyz     :     0.941347
      dx2y2   :     0.992712
      dxy     :     0.992712
      f0      :     0.024402  f :     0.029558
      f+1     :     0.001968
      f-1     :     0.001968
      f+2     :     0.000610
      f-2     :     0.000610
      f+3     :     0.000000
      f-3     :     0.000000
      g0      :     0.002784  g :     0.003325
      g+1     :     0.000246
      g-1     :     0.000246
      g+2     :     0.000025
      g-2     :     0.000025
      g+3     :     0.000000
      g-3     :     0.000000
      g+4     :     0.000000
      g-4     :     0.000000
  1 H s       :     1.068794  s :     1.068794
      pz      :     0.190534  p :     0.277432
      px      :     0.043449
      py      :     0.043449
      dz2     :     0.128193  d :     0.256907
      dxz     :     0.057703
      dyz     :     0.057703
      dx2y2   :     0.006654
      dxy     :     0.006654

SPIN
  0 Crs       :     0.273638  s :     0.273638
      pz      :     0.007969  p :     0.024550
      px      :     0.008290
      py      :     0.008290
      dz2     :     0.674253  d :     4.536712
      dxz     :     0.938517
      dyz     :     0.938517
      dx2y2   :     0.992712
      dxy     :     0.992712
      f0      :    -0.002071  f :     0.002046
      f+1     :     0.001449
      f-1     :     0.001449
      f+2     :     0.000610
      f-2     :     0.000610
      f+3     :    -0.000000
      f-3     :    -0.000000
      g0      :    -0.000416  g :     0.000032
      g+1     :     0.000200
      g-1     :     0.000200
      g+2     :     0.000025
      g-2     :     0.000025
      g+3     :    -0.000000
      g-3     :    -0.000000
      g+4     :    -0.000000
      g-4     :     0.000000
  1 H s       :     0.018846  s :     0.018846
      pz      :     0.026974  p :     0.079944
      px      :     0.026485
      py      :     0.026485
      dz2     :     0.000806  d :     0.064232
      dxz     :     0.025059
      dyz     :     0.025059
      dx2y2   :     0.006654
      dxy     :     0.006654


                      *****************************
                      * MAYER POPULATION ANALYSIS *
                      *****************************

  NA   - Mulliken gross atomic population
  ZA   - Total nuclear charge
  QA   - Mulliken gross atomic charge
  VA   - Mayer's total valence
  BVA  - Mayer's bonded valence
  FA   - Mayer's free valence

  ATOM       NA         ZA         QA         VA         BVA        FA
  0 Cr    23.7232    24.0000     0.2768     5.9376     0.9975     4.9401
  1 H      1.2768     1.0000    -0.2768     1.0003     0.9975     0.0028

  Mayer bond orders larger than 0.100000
B(  0-Cr,  1-H ) :   0.9975 

-------
TIMINGS
-------

Total SCF time: 0 days 0 hours 16 min 21 sec 

Total time                  ....     981.966 sec
Sum of individual times     ....     981.498 sec  (100.0%)

Fock matrix formation       ....     980.831 sec  ( 99.9%)
  XC integration            ....       2.056 sec  (  0.2% of F)
    Basis function eval.    ....       0.285 sec  ( 13.9% of XC)
    Density eval.           ....       0.306 sec  ( 14.9% of XC)
    XC-Functional eval.     ....       0.082 sec  (  4.0% of XC)
    XC-Potential eval.      ....       0.841 sec  ( 40.9% of XC)
Diagonalization             ....       0.276 sec  (  0.0%)
Density matrix formation    ....       0.044 sec  (  0.0%)
Population analysis         ....       0.006 sec  (  0.0%)
Initial guess               ....       0.098 sec  (  0.0%)
Orbital Transformation      ....       0.000 sec  (  0.0%)
Orbital Orthonormalization  ....       0.000 sec  (  0.0%)
DIIS solution               ....       0.112 sec  (  0.0%)
Grid generation             ....       0.131 sec  (  0.0%)

-------------------------   --------------------
FINAL SINGLE POINT ENERGY     -1044.954438591586
-------------------------   --------------------


                            ***************************************
                            *     ORCA property calculations      *
                            ***************************************

                                    ---------------------
                                    Active property flags
                                    ---------------------
   (+) Dipole Moment


------------------------------------------------------------------------------
                       ORCA ELECTRIC PROPERTIES CALCULATION
------------------------------------------------------------------------------

Dipole Moment Calculation                       ... on
Quadrupole Moment Calculation                   ... off
Polarizability Calculation                      ... off
GBWName                                         ... 19_CrH.gbw
Electron density file                           ... 19_CrH.scfp
The origin for moment calculation is the CENTER OF MASS  = ( 0.000000,  0.000000  0.381568)

-------------
DIPOLE MOMENT
-------------
                                X             Y             Z
Electronic contribution:     -0.00004      -0.00004      -2.99104
Nuclear contribution   :      0.00000       0.00000       1.64492
                        -----------------------------------------
Total Dipole Moment    :     -0.00004      -0.00004      -1.34613
                        -----------------------------------------
Magnitude (a.u.)       :      1.34613
Magnitude (Debye)      :      3.42158



--------------------
Rotational spectrum 
--------------------
 
Rotational constants in cm-1:     0.000000     6.192127     6.192127 
Rotational constants in MHz :     0.000000 185635.310837 185635.310837 

 Dipole components along the rotational axes: 
x,y,z [a.u.] :    -1.346125    -0.000044    -0.000040 
x,y,z [Debye]:    -3.421579    -0.000111    -0.000101 

 

Timings for individual modules:

Sum of individual times         ...      985.583 sec (=  16.426 min)
GTO integral calculation        ...        3.017 sec (=   0.050 min)   0.3 %
SCF iterations                  ...      982.566 sec (=  16.376 min)  99.7 %
                             ****ORCA TERMINATED NORMALLY****
TOTAL RUN TIME: 0 days 0 hours 16 minutes 26 seconds 224 msec
