
                                 *****************
                                 * O   R   C   A *
                                 *****************

           --- An Ab Initio, DFT and Semiempirical electronic structure package ---

                  #######################################################
                  #                        -***-                        #
                  #          Department of theory and spectroscopy      #
                  #               Directorship: Frank Neese             #
                  #        Max Planck Institute fuer Kohlenforschung    #
                  #                Kaiser Wilhelm Platz 1               #
                  #                 D-45470 Muelheim/Ruhr               #
                  #                      Germany                        #
                  #                                                     #
                  #                  All rights reserved                #
                  #                        -***-                        #
                  #######################################################


                         Program Version 4.2.0 -  RELEASE  -


 With contributions from (in alphabetic order):
   Daniel Aravena         : Magnetic Suceptibility
   Michael Atanasov       : Ab Initio Ligand Field Theory (pilot matlab implementation)
   Alexander A. Auer      : GIAO ZORA, VPT2
   Ute Becker             : Parallelization
   Giovanni Bistoni       : ED, misc. LED, open-shell LED, HFLED
   Martin Brehm           : Molecular dynamics
   Dmytro Bykov           : SCF Hessian
   Vijay G. Chilkuri      : MRCI spin determinant printing, contributions to CSF-ICE
   Dipayan Datta          : RHF DLPNO-CCSD density
   Achintya Kumar Dutta   : EOM-CC, STEOM-CC
   Dmitry Ganyushin       : Spin-Orbit,Spin-Spin,Magnetic field MRCI
   Miquel Garcia          : C-PCM Hessian, Gaussian charge scheme
   Yang Guo               : DLPNO-NEVPT2, CIM, IAO-localization
   Andreas Hansen         : Spin unrestricted coupled pair/coupled cluster methods
   Benjamin Helmich-Paris : CASSCF linear response (MC-RPA)
   Lee Huntington         : MR-EOM, pCC
   Robert Izsak           : Overlap fitted RIJCOSX, COSX-SCS-MP3, EOM
   Christian Kollmar      : KDIIS, OOCD, Brueckner-CCSD(T), CCSD density
   Simone Kossmann        : Meta GGA functionals, TD-DFT gradient, OOMP2, MP2 Hessian
   Martin Krupicka        : AUTO-CI
   Lucas Lang             : DCDCAS
   Dagmar Lenk            : GEPOL surface, SMD
   Dimitrios Liakos       : Extrapolation schemes; Compound Job, initial MDCI parallelization
   Dimitrios Manganas     : Further ROCIS development; embedding schemes
   Dimitrios Pantazis     : SARC Basis sets
   Taras Petrenko         : DFT Hessian,TD-DFT gradient, ASA, ECA, R-Raman, ABS, FL, XAS/XES, NRVS
   Peter Pinski           : DLPNO-MP2, DLPNO-MP2 Gradient
   Christoph Reimann      : Effective Core Potentials
   Marius Retegan         : Local ZFS, SOC
   Christoph Riplinger    : Optimizer, TS searches, QM/MM, DLPNO-CCSD(T), (RO)-DLPNO pert. Triples
   Tobias Risthaus        : Range-separated hybrids, TD-DFT gradient, RPA, STAB
   Michael Roemelt        : Original ROCIS implementation
   Masaaki Saitow         : Open-shell DLPNO-CCSD energy and density
   Barbara Sandhoefer     : DKH picture change effects
   Avijit Sen             : IP-ROCIS
   Kantharuban Sivalingam : CASSCF convergence, NEVPT2, FIC-MRCI
   Bernardo de Souza      : ESD, SOC TD-DFT
   Georgi Stoychev        : AutoAux, RI-MP2 NMR
   Willem Van den Heuvel  : Paramagnetic NMR
   Boris Wezisla          : Elementary symmetry handling
   Frank Wennmohs         : Technical directorship


 We gratefully acknowledge several colleagues who have allowed us to
 interface, adapt or use parts of their codes:
   Stefan Grimme, W. Hujo, H. Kruse,             : VdW corrections, initial TS optimization,
                  C. Bannwarth                     DFT functionals, gCP, sTDA/sTD-DF
   Ed Valeev, F. Pavosevic, A. Kumar             : LibInt (2-el integral package), F12 methods
   Garnet Chan, S. Sharma, J. Yang, R. Olivares  : DMRG
   Ulf Ekstrom                                   : XCFun DFT Library
   Mihaly Kallay                                 : mrcc  (arbitrary order and MRCC methods)
   Andreas Klamt, Michael Diedenhofen            : otool_cosmo (COSMO solvation model)
   Jiri Pittner, Ondrej Demel                    : Mk-CCSD
   Frank Weinhold                                : gennbo (NPA and NBO analysis)
   Christopher J. Cramer and Donald G. Truhlar   : smd solvation model
   Lars Goerigk                                  : TD-DFT with DH, B97 family of functionals
   V. Asgeirsson, H. Jonsson                     : NEB implementation
   FAccTs GmbH                                   : IRC, NEB, NEB-TS, Multilevel, MM, QM/MM, CI optimization
   S Lehtola, MJT Oliveira, MAL Marques          : LibXC Library


 Your calculation uses the libint2 library for the computation of 2-el integrals
 For citations please refer to: http://libint.valeyev.net

 Your ORCA version has been built with support for libXC version: 4.2.3
 For citations please refer to: https://tddft.org/programs/libxc/

 This ORCA versions uses:
   CBLAS   interface :  Fast vector & matrix operations
   LAPACKE interface :  Fast linear algebra routines
   SCALAPACK package :  Parallel linear algebra routines


Your calculation utilizes the DFT-NL dispersion correction.
Cite in your paper:
Vydrov, O. A.; Van Voorhis, T. J. Chem. Phys. 2010, 133, 244103
Hujo, W.; Grimme, S. J. Chem. Theory Comput. 2011, 7, 3866 
   

----- Orbital basis set information -----
Your calculation utilizes the basis: aug-cc-pVTZ 
    H, B-Ne : Obtained from the ccRepo (grant-hill.group.shef.ac.uk/ccrepo) Feb. 2017
              R. A. Kendall, T. H. Dunning, Jr., R. J. Harrison, J. Chem. Phys. 96, 6796 (1992)
         He : Obtained from the ccRepo (grant-hill.group.shef.ac.uk/ccrepo) Feb. 2017
              D. E. Woon, T. H. Dunning, Jr., J. Chem. Phys. 100, 2975 (1994)
  Li-Be, Na : Obtained from the ccRepo (grant-hill.group.shef.ac.uk/ccrepo) Feb. 2017
              B. P. Prascher, D. E. Woon, K. A. Peterson, T. H. Dunning, Jr., A. K. Wilson, Theor. Chem. Acc. 128, 69 (2011)
         Mg : Obtained from the Peterson Research Group Website (tyr0.chem.wsu.edu/~kipeters) Feb. 2017
              B. P. Prascher, D. E. Woon, K. A. Peterson, T. H. Dunning, Jr., A. K. Wilson, Theor. Chem. Acc. 128, 69 (2011)
      Al-Ar : Obtained from the ccRepo (grant-hill.group.shef.ac.uk/ccrepo) Feb. 2017
              D. E. Woon, T. H. Dunning, Jr., J. Chem. Phys. 98, 1358 (1993)
      Sc-Zn : Obtained from the ccRepo (grant-hill.group.shef.ac.uk/ccrepo) Feb. 2017
              N. B. Balabanov, K. A. Peterson, J. Chem. Phys. 123, 064107 (2005)
              N. B. Balabanov, K. A. Peterson, J. Chem. Phys. 125, 074110 (2006)
      Ga-Kr : Obtained from the ccRepo (grant-hill.group.shef.ac.uk/ccrepo) Feb. 2017
              A. K. Wilson, D. E. Woon, K. A. Peterson, T. H. Dunning, Jr., J. Chem. Phys. 110, 7667 (1999)
     Ag, Au : Obtained from the Peterson Research Group Website (tyr0.chem.wsu.edu/~kipeters) Feb. 2017
              K. A. Peterson, C. Puzzarini, Theor. Chem. Acc. 114, 283 (2005)

----- AuxJK basis set information -----
Your calculation utilizes the auxiliary basis: def2/JK
   H-Ba, Hf-Rn: F. Weigend, J. Comput. Chem. 29, 167 (2008).

================================================================================
                                        WARNINGS
                       Please study these warnings very carefully!
================================================================================


WARNING: your system is open-shell and RHF/RKS was chosen
  ===> : WILL SWITCH to UHF/UKS


INFO   : the flag for use of LIBINT has been found!

================================================================================
                                       INPUT FILE
================================================================================
NAME = 31_FeH.in
|  1> #
|  2> # 31_FeH wb97m-v/aug-cc-pvtz
|  3> #
|  4> ! wb97m-v aug-cc-pvtz def2/jk grid4 nofinalgrid
|  5> 
|  6> *xyz 0 4
|  7>   Fe  0.00000000000000      0.00000000000000      0.22838748047068
|  8>   H   0.00000000000000      0.00000000000000      1.77161251952932
|  9> *
| 10> 
| 11> %pal
| 12> nprocs 24
| 13> end
| 14> 
| 15> 
| 16>                          ****END OF INPUT****
================================================================================

                       ****************************
                       * Single Point Calculation *
                       ****************************

---------------------------------
CARTESIAN COORDINATES (ANGSTROEM)
---------------------------------
  Fe     0.000000    0.000000    0.228387
  H      0.000000    0.000000    1.771613

----------------------------
CARTESIAN COORDINATES (A.U.)
----------------------------
  NO LB      ZA    FRAG     MASS         X           Y           Z
   0 Fe   26.0000    0    55.850    0.000000    0.000000    0.431590
   1 H     1.0000    0     1.008    0.000000    0.000000    3.347862

--------------------------------
INTERNAL COORDINATES (ANGSTROEM)
--------------------------------
 Fe     0   0   0     0.000000000000     0.00000000     0.00000000
 H      1   0   0     1.543225039059     0.00000000     0.00000000

---------------------------
INTERNAL COORDINATES (A.U.)
---------------------------
 Fe     0   0   0     0.000000000000     0.00000000     0.00000000
 H      1   0   0     2.916272686831     0.00000000     0.00000000

---------------------
BASIS SET INFORMATION
---------------------
There are 2 groups of distinct atoms

 Group   1 Type Fe  : 116s77p23d3f2g contracted to 8s7p5d3f2g pattern {19191919191911/151515151511/77711/111/11}
 Group   2 Type H   : 6s3p2d contracted to 4s3p2d pattern {3111/111/11}

Atom   0Fe   basis set group =>   1
Atom   1H    basis set group =>   2
----------------------------------
AUXILIARY/JK BASIS SET INFORMATION
----------------------------------
There are 2 groups of distinct atoms

 Group   1 Type Fe  : 19s14p12d10f7g3h1i contracted to 16s13p11d9f5g3h1i pattern {4111111111111111/2111111111111/21111111111/211111111/31111/111/1}
 Group   2 Type H   : 4s2p2d contracted to 2s2p2d pattern {31/11/11}

Atom   0Fe   basis set group =>   1
Atom   1H    basis set group =>   2


           ************************************************************
           *        Program running with 24 parallel MPI-processes    *
           *              working on a common directory               *
           ************************************************************
------------------------------------------------------------------------------
                           ORCA GTO INTEGRAL CALCULATION
------------------------------------------------------------------------------

                         BASIS SET STATISTICS AND STARTUP INFO

 # of primitive gaussian shells          ...  232
 # of primitive gaussian functions       ...  526
 # of contracted shells                  ...   34
 # of contracted basis functions         ...  116
 Highest angular momentum                ...    4
 Maximum contraction depth               ...   19
 Integral package used                   ... LIBINT
 Integral threshhold            Thresh   ...  1.000e-10
 Primitive cut-off              TCut     ...  1.000e-11


------------------------------ INTEGRAL EVALUATION ----------------------------


 * One electron integrals 
 Pre-screening matrix                    ... done
 Shell pair data                         ... done (   0.001 sec)



           ************************************************************
           *        Program running with 24 parallel MPI-processes    *
           *              working on a common directory               *
           ************************************************************
-------------------------------------------------------------------------------
                                 ORCA SCF
-------------------------------------------------------------------------------

------------
SCF SETTINGS
------------
Hamiltonian:
 Density Functional     Method          .... DFT(GTOs)
 Exchange Functional    Exchange        .... WB97M-V
 Correlation Functional Correlation     .... WB97M-V
 Gradients option       PostSCFGGA      .... off
 Hybrid DFT is turned on
   Fraction HF Exchange ScalHFX         ....  0.150000
   Scaling of DF-GGA-X  ScalDFX         ....  0.000000
   Scaling of DF-GGA-C  ScalDFC         ....  1.000000
   Scaling of DF-LDA-C  ScalLDAC        ....  1.000000
   Perturbative correction              ....  0.000000
   Density functional embedding theory  .... OFF
 Long-range corrected/Screened/Range-Separated Hybrid DFT is turned on
   Amount of maximum screened exact exchange              ....  0.850000
   Range separation parameter mu (erf(mu*r12)/r12)        ....  0.300000
   NL short-range parameter             ....  6.000000
   NL long-range parameter              ....  0.010000


General Settings:
 Integral files         IntName         .... 31_FeH
 Hartree-Fock type      HFTyp           .... UHF
 Total Charge           Charge          ....    0
 Multiplicity           Mult            ....    4
 Number of Electrons    NEL             ....   27
 Basis Dimension        Dim             ....  116
 Nuclear Repulsion      ENuc            ....      8.9154900080 Eh

Convergence Acceleration:
 DIIS                   CNVDIIS         .... on
   Start iteration      DIISMaxIt       ....    12
   Startup error        DIISStart       ....  0.200000
   # of expansion vecs  DIISMaxEq       ....     5
   Bias factor          DIISBfac        ....   1.050
   Max. coefficient     DIISMaxC        ....  10.000
 Newton-Raphson         CNVNR           .... off
 SOSCF                  CNVSOSCF        .... off
 Level Shifting         CNVShift        .... on
   Level shift para.    LevelShift      ....    0.2500
   Turn off err/grad.   ShiftErr        ....    0.0010
 Zerner damping         CNVZerner       .... off
 Static damping         CNVDamp         .... on
   Fraction old density DampFac         ....    0.7000
   Max. Damping (<1)    DampMax         ....    0.9800
   Min. Damping (>=0)   DampMin         ....    0.0000
   Turn off err/grad.   DampErr         ....    0.1000
 Fernandez-Rico         CNVRico         .... off

SCF Procedure:
 Maximum # iterations   MaxIter         ....   125
 SCF integral mode      SCFMode         .... Direct
   Integral package                     .... LIBINT
 Reset frequency        DirectResetFreq ....    20
 Integral Threshold     Thresh          ....  1.000e-10 Eh
 Primitive CutOff       TCut            ....  1.000e-11 Eh

Convergence Tolerance:
 Convergence Check Mode ConvCheckMode   .... Total+1el-Energy
 Convergence forced     ConvForced      .... 0
 Energy Change          TolE            ....  1.000e-06 Eh
 1-El. energy change                    ....  1.000e-03 Eh
 DIIS Error             TolErr          ....  1.000e-06


Diagonalization of the overlap matrix:
Smallest eigenvalue                        ... 6.010e-05
Time for diagonalization                   ...    0.004 sec
Threshold for overlap eigenvalues          ... 1.000e-08
Number of eigenvalues below threshold      ... 0
Time for construction of square roots      ...    0.002 sec
Total time needed                          ...    0.005 sec

-------------------
DFT GRID GENERATION
-------------------

General Integration Accuracy     IntAcc      ...  4.670
Radial Grid Type                 RadialGrid  ... Gauss-Chebyshev
Angular Grid (max. acc.)         AngularGrid ... Lebedev-302
Angular grid pruning method      GridPruning ... 3 (G Style)
Weight generation scheme         WeightScheme... Becke
Basis function cutoff            BFCut       ...    1.0000e-10
Integration weight cutoff        WCut        ...    1.0000e-14
Grids for H and He will be reduced by one unit

# of grid points (after initial pruning)     ...  13034 (   0.0 sec)
# of grid points (after weights+screening)   ...  12994 (   0.0 sec)
nearest neighbour list constructed           ...    0.0 sec
Grid point re-assignment to atoms done       ...    0.0 sec
Grid point division into batches done        ...    0.1 sec
Reduced shell lists constructed in    0.1 sec

Total number of grid points                  ...    12994
Total number of batches                      ...      204
Average number of points per batch           ...       63
Average number of grid points per atom       ...     6497
Average number of shells per batch           ...    14.90 (43.82%)
Average number of basis functions per batch  ...    33.50 (28.88%)
Average number of large shells per batch     ...     8.00 (53.69%)
Average number of large basis fcns per batch ...    18.80 (56.12%)
Maximum spatial batch extension              ...  31.41, 28.57, 18.66 au
Average spatial batch extension              ...   1.02,  0.94,  0.71 au

Time for grid setup =    0.122 sec

------------------------------
INITIAL GUESS: MODEL POTENTIAL
------------------------------
Loading Hartree-Fock densities                     ... done
Calculating cut-offs                               ... done
Setting up the integral package                    ... done
Initializing the effective Hamiltonian             ... done
Starting the Coulomb interaction                   ... done (   0.0 sec)
Reading the grid                                   ... done
Mapping shells                                     ... done
Starting the XC term evaluation                    ... done (   0.0 sec)
  promolecular density results
     # of electrons  =     26.999503944
     EX              =    -54.366192963
     EC              =     -1.163273455
     EX+EC           =    -55.529466418
Transforming the Hamiltonian                       ... done (   0.0 sec)
Diagonalizing the Hamiltonian                      ... done (   0.0 sec)
Back transforming the eigenvectors                 ... done (   0.0 sec)
Now organizing SCF variables                       ... done
                      ------------------
                      INITIAL GUESS DONE (   0.2 sec)
                      ------------------
--------------
SCF ITERATIONS
--------------
ITER       Energy         Delta-E        Max-DP      RMS-DP      [F,P]     Damp
               ***  Starting incremental Fock matrix formation  ***
  0  -1264.1877256315   0.000000000000 0.05807630  0.00134239  0.2532082 0.7000
  1  -1264.2236256862  -0.035900054752 0.02193599  0.00057986  0.0863925 0.7000
                               ***Turning on DIIS***
  2  -1264.2395034768  -0.015877790590 0.05382380  0.00129356  0.0602837 0.0000
  3  -1264.2805975152  -0.041094038337 0.01718964  0.00039132  0.0314016 0.0000
  4  -1264.2839284239  -0.003330908726 0.01953176  0.00042990  0.0325010 0.0000
  5  -1264.2858407721  -0.001912348230 0.01981837  0.00023801  0.0159925 0.0000
  6  -1264.2872696102  -0.001428838118 0.01339238  0.00018779  0.0094926 0.0000
  7  -1264.2877913150  -0.000521704789 0.00569840  0.00010545  0.0038402 0.0000
  8  -1264.2878752598  -0.000083944775 0.00272636  0.00005284  0.0012397 0.0000
  9  -1264.2878876912  -0.000012431353 0.00211185  0.00004099  0.0005722 0.0000
 10  -1264.2878983059  -0.000010614786 0.00075162  0.00001703  0.0003698 0.0000
 11  -1264.2878968852   0.000001420767 0.00048690  0.00001164  0.0006323 0.0000
                 **** Energy Check signals convergence ****

               *****************************************************
               *                     SUCCESS                       *
               *           SCF CONVERGED AFTER  12 CYCLES          *
               *****************************************************


Setting up the DFT-NL grid :

General Integration Accuracy     IntAcc      ...  4.340
Radial Grid Type                 RadialGrid  ... Gauss-Chebyshev
Angular Grid (max. acc.)         AngularGrid ... Lebedev-110
Angular grid pruning method      GridPruning ... 3 (G Style)
Weight generation scheme         WeightScheme... Becke
Basis function cutoff            BFCut       ...    1.0000e-10
Integration weight cutoff        WCut        ...    1.0000e-14
Grids for H and He will be reduced by one unit

# of grid points (after initial pruning)     ...   3706 (   0.0 sec)
# of grid points (after weights+screening)   ...   3681 (   0.0 sec)
nearest neighbour list constructed           ...    0.0 sec
Grid point re-assignment to atoms done       ...    0.0 sec
Grid point division into batches done        ...    0.0 sec
Reduced shell lists constructed in    0.0 sec

Total number of grid points                  ...     3681
Total number of batches                      ...       59
Average number of points per batch           ...       62
Average number of grid points per atom       ...     1840
Average number of shells per batch           ...    20.25 (59.56%)
Average number of basis functions per batch  ...    56.25 (48.49%)
Average number of large shells per batch     ...    15.50 (76.54%)
Average number of large basis fcns per batch ...    44.50 (79.11%)
Maximum spatial batch extension              ...  37.20, 28.73, 20.01 au
Average spatial batch extension              ...   1.30,  1.32,  0.87 au

Final grid set up in    0.0 sec

-------------------------------------------------------------------------------
                         DFT-NL dispersion correction                          
-------------------------------------------------------------------------------

SC Energy -1264.287896714 
NL    Energy 0.114326522 
SC+NL Energy -1264.173570191 
NL done in    0.0 sec
-------------------------------------------------------------------------------

----------------
TOTAL SCF ENERGY
----------------

Total Energy       :        -1264.17357019 Eh          -34399.91170 eV

Components:
Nuclear Repulsion  :            8.91549001 Eh             242.60282 eV
Electronic Energy  :        -1273.08906020 Eh          -34642.51452 eV
One Electron Energy:        -1766.27785720 Eh          -48062.86396 eV
Two Electron Energy:          493.18879700 Eh           13420.34944 eV

Virial components:
Potential Energy   :        -2526.86803492 Eh          -68759.57490 eV
Kinetic Energy     :         1262.69446472 Eh           34359.66320 eV
Virial Ratio       :            2.00117139


DFT components:
N(Alpha)           :       15.000006279498 electrons
N(Beta)            :       12.000005535724 electrons
N(Total)           :       27.000011815222 electrons
E(X)               :      -42.820883697076 Eh       
E(C)               :       -1.349379524671 Eh       
NL Energy, E(C,NL) :        0.114326522274 Eh       
E(XC)              :      -44.055936699473 Eh       
DFET-embed. en.    :        0.000000000000 Eh       

---------------
SCF CONVERGENCE
---------------

  Last Energy change         ...    1.7141e-07  Tolerance :   1.0000e-06
  Last MAX-Density change    ...    7.4367e-04  Tolerance :   1.0000e-05
  Last RMS-Density change    ...    1.2153e-05  Tolerance :   1.0000e-06
  Last DIIS Error            ...    2.0187e-04  Tolerance :   1.0000e-06

             **** THE GBW FILE WAS UPDATED (31_FeH.gbw) ****
             **** DENSITY FILE WAS UPDATED (31_FeH.scfp) ****
             **** ENERGY FILE WAS UPDATED (31_FeH.en.tmp) ****
----------------------
UHF SPIN CONTAMINATION
----------------------

Warning: in a DFT calculation there is little theoretical justification to 
         calculate <S**2> as in Hartree-Fock theory. We will do it anyways
         but you should keep in mind that the values have only limited relevance

Expectation value of <S**2>     :     3.767708
Ideal value S*(S+1) for S=1.5   :     3.750000
Deviation                       :     0.017708

             **** THE GBW FILE WAS UPDATED (31_FeH.gbw) ****
             **** DENSITY FILE WAS UPDATED (31_FeH.scfp) ****
----------------
ORBITAL ENERGIES
----------------
                 SPIN UP ORBITALS
  NO   OCC          E(Eh)            E(eV) 
   0   1.0000    -256.493649     -6979.5470 
   1   1.0000     -30.196641      -821.6924 
   2   1.0000     -25.972081      -706.7362 
   3   1.0000     -25.972081      -706.7362 
   4   1.0000     -25.942747      -705.9380 
   5   1.0000      -3.581017       -97.4444 
   6   1.0000      -2.354649       -64.0733 
   7   1.0000      -2.354649       -64.0733 
   8   1.0000      -2.300051       -62.5876 
   9   1.0000      -0.394226       -10.7274 
  10   1.0000      -0.385443       -10.4884 
  11   1.0000      -0.385443       -10.4884 
  12   1.0000      -0.339346        -9.2341 
  13   1.0000      -0.339346        -9.2341 
  14   1.0000      -0.301353        -8.2002 
  15   0.0000      -0.017121        -0.4659 
  16   0.0000       0.008271         0.2251 
  17   0.0000       0.008271         0.2251 
  18   0.0000       0.018268         0.4971 
  19   0.0000       0.032046         0.8720 
  20   0.0000       0.064354         1.7512 
  21   0.0000       0.064354         1.7512 
  22   0.0000       0.074576         2.0293 
  23   0.0000       0.080003         2.1770 
  24   0.0000       0.080004         2.1770 
  25   0.0000       0.081131         2.2077 
  26   0.0000       0.081132         2.2077 
  27   0.0000       0.090204         2.4546 
  28   0.0000       0.156490         4.2583 
  29   0.0000       0.211645         5.7592 
  30   0.0000       0.228770         6.2251 
  31   0.0000       0.228770         6.2252 
  32   0.0000       0.279043         7.5931 
  33   0.0000       0.317100         8.6287 
  34   0.0000       0.317100         8.6287 
  35   0.0000       0.339033         9.2256 
  36   0.0000       0.339040         9.2258 
  37   0.0000       0.354929         9.6581 
  38   0.0000       0.354929         9.6581 
  39   0.0000       0.361096         9.8259 
  40   0.0000       0.582849        15.8601 
  41   0.0000       0.600921        16.3519 
  42   0.0000       0.758286        20.6340 
  43   0.0000       0.792112        21.5545 
  44   0.0000       0.792112        21.5545 
  45   0.0000       0.825764        22.4702 
  46   0.0000       0.825764        22.4702 
  47   0.0000       0.925046        25.1718 
  48   0.0000       0.925046        25.1718 
  49   0.0000       0.928598        25.2684 
  50   0.0000       0.939830        25.5741 
  51   0.0000       0.939830        25.5741 
  52   0.0000       1.032068        28.0840 
  53   0.0000       1.032068        28.0840 
  54   0.0000       1.062228        28.9047 
  55   0.0000       1.088962        29.6322 
  56   0.0000       1.088965        29.6322 
  57   0.0000       1.136024        30.9128 
  58   0.0000       1.136024        30.9128 
  59   0.0000       1.226170        33.3658 
  60   0.0000       1.226175        33.3659 
  61   0.0000       1.398065        38.0433 
  62   0.0000       1.499227        40.7960 
  63   0.0000       1.740741        47.3680 
  64   0.0000       1.740741        47.3680 
  65   0.0000       2.202722        59.9391 
  66   0.0000       2.765362        75.2493 
  67   0.0000       2.765362        75.2493 
  68   0.0000       2.780711        75.6670 
  69   0.0000       2.780711        75.6670 
  70   0.0000       2.829829        77.0036 
  71   0.0000       2.829831        77.0036 
  72   0.0000       2.839816        77.2753 
  73   0.0000       3.029539        82.4379 
  74   0.0000       3.070363        83.5488 
  75   0.0000       3.127501        85.1036 
  76   0.0000       3.127501        85.1036 
  77   0.0000       3.397480        92.4501 
  78   0.0000       3.397506        92.4508 
  79   0.0000       3.400566        92.5341 
  80   0.0000       3.414928        92.9249 
  81   0.0000       3.414961        92.9258 
  82   0.0000       3.436020        93.4989 
  83   0.0000       3.436020        93.4989 
  84   0.0000       3.437661        93.5435 
  85   0.0000       3.437661        93.5435 
  86   0.0000       3.656790        99.5063 
  87   0.0000       3.859551       105.0237 
  88   0.0000       3.859622       105.0256 
  89   0.0000       4.065197       110.6196 
  90   0.0000       4.065197       110.6196 
  91   0.0000       4.550118       123.8150 
  92   0.0000       4.550118       123.8150 
  93   0.0000       4.650029       126.5337 
  94   0.0000       4.650036       126.5339 
  95   0.0000       4.824152       131.2719 
  96   0.0000       5.015664       136.4832 
  97   0.0000       5.015664       136.4832 
  98   0.0000       5.292803       144.0245 
  99   0.0000       5.920422       161.1029 
 100   0.0000       9.074085       246.9184 
 101   0.0000       9.074085       246.9184 
 102   0.0000       9.148596       248.9460 
 103   0.0000       9.148613       248.9464 
 104   0.0000       9.210670       250.6351 
 105   0.0000       9.210670       250.6351 
 106   0.0000       9.499959       258.5070 
 107   0.0000       9.794330       266.5173 
 108   0.0000       9.794332       266.5173 
 109   0.0000       9.838996       267.7327 
 110   0.0000       9.838996       267.7327 
 111   0.0000       9.887472       269.0518 
 112   0.0000       9.887483       269.0521 
 113   0.0000      10.098381       274.7909 
 114   0.0000      10.098381       274.7909 
 115   0.0000      10.387119       282.6479 

                 SPIN DOWN ORBITALS
  NO   OCC          E(Eh)            E(eV) 
   0   1.0000    -256.492269     -6979.5095 
   1   1.0000     -30.135176      -820.0198 
   2   1.0000     -25.916183      -705.2152 
   3   1.0000     -25.916183      -705.2152 
   4   1.0000     -25.909141      -705.0236 
   5   1.0000      -3.453060       -93.9625 
   6   1.0000      -2.197689       -59.8022 
   7   1.0000      -2.195009       -59.7292 
   8   1.0000      -2.195009       -59.7292 
   9   1.0000      -0.361561        -9.8386 
  10   1.0000      -0.273168        -7.4333 
  11   1.0000      -0.273168        -7.4333 
  12   0.0000      -0.042373        -1.1530 
  13   0.0000      -0.009069        -0.2468 
  14   0.0000      -0.009068        -0.2468 
  15   0.0000      -0.000624        -0.0170 
  16   0.0000       0.013380         0.3641 
  17   0.0000       0.043823         1.1925 
  18   0.0000       0.043838         1.1929 
  19   0.0000       0.051406         1.3988 
  20   0.0000       0.051410         1.3989 
  21   0.0000       0.055230         1.5029 
  22   0.0000       0.073746         2.0067 
  23   0.0000       0.073746         2.0067 
  24   0.0000       0.076620         2.0849 
  25   0.0000       0.099491         2.7073 
  26   0.0000       0.099557         2.7091 
  27   0.0000       0.108713         2.9582 
  28   0.0000       0.161162         4.3854 
  29   0.0000       0.208828         5.6825 
  30   0.0000       0.213675         5.8144 
  31   0.0000       0.213680         5.8145 
  32   0.0000       0.290742         7.9115 
  33   0.0000       0.313311         8.5256 
  34   0.0000       0.313311         8.5256 
  35   0.0000       0.332864         9.0577 
  36   0.0000       0.332865         9.0577 
  37   0.0000       0.350732         9.5439 
  38   0.0000       0.350732         9.5439 
  39   0.0000       0.364831         9.9275 
  40   0.0000       0.586555        15.9610 
  41   0.0000       0.600014        16.3272 
  42   0.0000       0.763047        20.7636 
  43   0.0000       0.790515        21.5110 
  44   0.0000       0.790539        21.5117 
  45   0.0000       0.827530        22.5182 
  46   0.0000       0.827531        22.5183 
  47   0.0000       0.896081        24.3836 
  48   0.0000       0.896081        24.3836 
  49   0.0000       0.922256        25.0959 
  50   0.0000       0.929518        25.2935 
  51   0.0000       0.929518        25.2935 
  52   0.0000       1.036473        28.2039 
  53   0.0000       1.036473        28.2039 
  54   0.0000       1.076622        29.2964 
  55   0.0000       1.092141        29.7187 
  56   0.0000       1.092214        29.7207 
  57   0.0000       1.133829        30.8531 
  58   0.0000       1.133829        30.8531 
  59   0.0000       1.260181        34.2913 
  60   0.0000       1.260426        34.2979 
  61   0.0000       1.402969        38.1767 
  62   0.0000       1.514009        41.1983 
  63   0.0000       1.750683        47.6385 
  64   0.0000       1.750683        47.6385 
  65   0.0000       2.199926        59.8630 
  66   0.0000       2.816874        76.6510 
  67   0.0000       2.816874        76.6510 
  68   0.0000       2.851166        77.5842 
  69   0.0000       2.851166        77.5842 
  70   0.0000       2.870221        78.1027 
  71   0.0000       2.870230        78.1029 
  72   0.0000       2.871330        78.1329 
  73   0.0000       3.063741        83.3686 
  74   0.0000       3.125016        85.0360 
  75   0.0000       3.209962        87.3475 
  76   0.0000       3.209962        87.3475 
  77   0.0000       3.394527        92.3698 
  78   0.0000       3.394744        92.3757 
  79   0.0000       3.428874        93.3044 
  80   0.0000       3.438960        93.5789 
  81   0.0000       3.439195        93.5852 
  82   0.0000       3.449900        93.8765 
  83   0.0000       3.449900        93.8765 
  84   0.0000       3.462795        94.2275 
  85   0.0000       3.462795        94.2275 
  86   0.0000       3.692135       100.4681 
  87   0.0000       3.838648       104.4549 
  88   0.0000       3.838797       104.4590 
  89   0.0000       4.036333       109.8342 
  90   0.0000       4.036333       109.8342 
  91   0.0000       4.546847       123.7260 
  92   0.0000       4.546847       123.7260 
  93   0.0000       4.783088       130.1544 
  94   0.0000       4.783112       130.1551 
  95   0.0000       4.812461       130.9537 
  96   0.0000       5.074152       138.0747 
  97   0.0000       5.074152       138.0747 
  98   0.0000       5.347148       145.5033 
  99   0.0000       5.966946       162.3689 
 100   0.0000       9.240777       251.4543 
 101   0.0000       9.240777       251.4543 
 102   0.0000       9.243915       251.5397 
 103   0.0000       9.243934       251.5402 
 104   0.0000       9.329257       253.8620 
 105   0.0000       9.329257       253.8620 
 106   0.0000       9.629183       262.0234 
 107   0.0000       9.916547       269.8430 
 108   0.0000       9.916547       269.8430 
 109   0.0000       9.924918       270.0708 
 110   0.0000       9.924973       270.0723 
 111   0.0000       9.966089       271.1911 
 112   0.0000       9.966161       271.1930 
 113   0.0000      10.182669       277.0845 
 114   0.0000      10.182669       277.0845 
 115   0.0000      10.487881       285.3898 

                    ********************************
                    * MULLIKEN POPULATION ANALYSIS *
                    ********************************

--------------------------------------------
MULLIKEN ATOMIC CHARGES AND SPIN POPULATIONS
--------------------------------------------
   0 Fe:    0.072895    3.026601
   1 H :   -0.072895   -0.026601
Sum of atomic charges         :   -0.0000000
Sum of atomic spin populations:    3.0000000

-----------------------------------------------------
MULLIKEN REDUCED ORBITAL CHARGES AND SPIN POPULATIONS
-----------------------------------------------------
CHARGE
  0 Fes       :     6.849131  s :     6.849131
      pz      :     4.128165  p :    12.134754
      px      :     4.003295
      py      :     4.003295
      dz2     :     0.951336  d :     6.939697
      dxz     :     1.994302
      dyz     :     1.994302
      dx2y2   :     0.999878
      dxy     :     0.999878
      f0      :     0.002900  f :     0.003263
      f+1     :     0.000106
      f-1     :     0.000106
      f+2     :     0.000075
      f-2     :     0.000075
      f+3     :     0.000000
      f-3     :     0.000000
      g0      :     0.000198  g :     0.000260
      g+1     :     0.000010
      g-1     :     0.000010
      g+2     :     0.000021
      g-2     :     0.000021
      g+3     :     0.000000
      g-3     :     0.000000
      g+4     :     0.000000
      g-4     :     0.000000
  1 H s       :     1.075950  s :     1.075950
      pz      :    -0.008924  p :    -0.004480
      px      :     0.002222
      py      :     0.002222
      dz2     :     0.001244  d :     0.001425
      dxz     :     0.000066
      dyz     :     0.000066
      dx2y2   :     0.000025
      dxy     :     0.000025

SPIN
  0 Fes       :     0.216387  s :     0.216387
      pz      :    -0.015546  p :    -0.018314
      px      :    -0.001384
      py      :    -0.001384
      dz2     :     0.822027  d :     2.827586
      dxz     :     0.002901
      dyz     :     0.002901
      dx2y2   :     0.999878
      dxy     :     0.999878
      f0      :     0.000731  f :     0.000903
      f+1     :     0.000011
      f-1     :     0.000011
      f+2     :     0.000075
      f-2     :     0.000075
      f+3     :    -0.000000
      f-3     :    -0.000000
      g0      :    -0.000012  g :     0.000038
      g+1     :     0.000004
      g-1     :     0.000004
      g+2     :     0.000021
      g-2     :     0.000021
      g+3     :    -0.000000
      g-3     :    -0.000000
      g+4     :    -0.000000
      g-4     :    -0.000000
  1 H s       :    -0.024658  s :    -0.024658
      pz      :     0.001120  p :    -0.001002
      px      :    -0.001061
      py      :    -0.001061
      dz2     :    -0.000050  d :    -0.000941
      dxz     :    -0.000471
      dyz     :    -0.000471
      dx2y2   :     0.000025
      dxy     :     0.000025


                     *******************************
                     * LOEWDIN POPULATION ANALYSIS *
                     *******************************

-------------------------------------------
LOEWDIN ATOMIC CHARGES AND SPIN POPULATIONS
-------------------------------------------
   0 Fe:    0.684487    2.971966
   1 H :   -0.684487    0.028034

----------------------------------------------------
LOEWDIN REDUCED ORBITAL CHARGES AND SPIN POPULATIONS
----------------------------------------------------
CHARGE
  0 Fes       :     6.562589  s :     6.562589
      pz      :     4.084763  p :    12.009496
      px      :     3.962366
      py      :     3.962366
      dz2     :     0.947321  d :     6.719736
      dxz     :     1.891977
      dyz     :     1.891977
      dx2y2   :     0.994230
      dxy     :     0.994230
      f0      :     0.015513  f :     0.022079
      f+1     :     0.003001
      f-1     :     0.003001
      f+2     :     0.000282
      f-2     :     0.000282
      f+3     :     0.000000
      f-3     :     0.000000
      g0      :     0.001035  g :     0.001613
      g+1     :     0.000250
      g-1     :     0.000250
      g+2     :     0.000039
      g-2     :     0.000039
      g+3     :     0.000000
      g-3     :     0.000000
      g+4     :     0.000000
      g-4     :     0.000000
  1 H s       :     1.064034  s :     1.064034
      pz      :     0.190110  p :     0.322472
      px      :     0.066181
      py      :     0.066181
      dz2     :     0.134635  d :     0.297981
      dxz     :     0.076224
      dyz     :     0.076224
      dx2y2   :     0.005449
      dxy     :     0.005449

SPIN
  0 Fes       :     0.212976  s :     0.212976
      pz      :    -0.022588  p :    -0.030025
      px      :    -0.003718
      py      :    -0.003718
      dz2     :     0.781827  d :     2.789742
      dxz     :     0.009728
      dyz     :     0.009728
      dx2y2   :     0.994230
      dxy     :     0.994230
      f0      :    -0.001251  f :    -0.000822
      f+1     :    -0.000068
      f-1     :    -0.000068
      f+2     :     0.000282
      f-2     :     0.000282
      f+3     :    -0.000000
      f-3     :    -0.000000
      g0      :    -0.000085  g :     0.000094
      g+1     :     0.000050
      g-1     :     0.000050
      g+2     :     0.000039
      g-2     :     0.000039
      g+3     :    -0.000000
      g-3     :    -0.000000
      g+4     :    -0.000000
      g-4     :    -0.000000
  1 H s       :     0.001831  s :     0.001831
      pz      :     0.024440  p :     0.014296
      px      :    -0.005072
      py      :    -0.005072
      dz2     :     0.002850  d :     0.011907
      dxz     :    -0.000920
      dyz     :    -0.000920
      dx2y2   :     0.005449
      dxy     :     0.005449


                      *****************************
                      * MAYER POPULATION ANALYSIS *
                      *****************************

  NA   - Mulliken gross atomic population
  ZA   - Total nuclear charge
  QA   - Mulliken gross atomic charge
  VA   - Mayer's total valence
  BVA  - Mayer's bonded valence
  FA   - Mayer's free valence

  ATOM       NA         ZA         QA         VA         BVA        FA
  0 Fe    25.9271    26.0000     0.0729     4.0164     1.0344     2.9820
  1 H      1.0729     1.0000    -0.0729     1.0397     1.0344     0.0053

  Mayer bond orders larger than 0.100000
B(  0-Fe,  1-H ) :   1.0344 

-------
TIMINGS
-------

Total SCF time: 0 days 0 hours 2 min 37 sec 

Total time                  ....     157.790 sec
Sum of individual times     ....     157.481 sec  ( 99.8%)

Fock matrix formation       ....     157.160 sec  ( 99.6%)
  XC integration            ....       0.349 sec  (  0.2% of F)
    Basis function eval.    ....       0.049 sec  ( 14.1% of XC)
    Density eval.           ....       0.048 sec  ( 13.9% of XC)
    XC-Functional eval.     ....       0.013 sec  (  3.7% of XC)
    XC-Potential eval.      ....       0.129 sec  ( 36.9% of XC)
Diagonalization             ....       0.043 sec  (  0.0%)
Density matrix formation    ....       0.007 sec  (  0.0%)
Population analysis         ....       0.006 sec  (  0.0%)
Initial guess               ....       0.116 sec  (  0.1%)
Orbital Transformation      ....       0.000 sec  (  0.0%)
Orbital Orthonormalization  ....       0.000 sec  (  0.0%)
DIIS solution               ....       0.016 sec  (  0.0%)
Grid generation             ....       0.133 sec  (  0.1%)

-------------------------   --------------------
FINAL SINGLE POINT ENERGY     -1264.173570191482
-------------------------   --------------------


                            ***************************************
                            *     ORCA property calculations      *
                            ***************************************

                                    ---------------------
                                    Active property flags
                                    ---------------------
   (+) Dipole Moment


------------------------------------------------------------------------------
                       ORCA ELECTRIC PROPERTIES CALCULATION
------------------------------------------------------------------------------

Dipole Moment Calculation                       ... on
Quadrupole Moment Calculation                   ... off
Polarizability Calculation                      ... off
GBWName                                         ... 31_FeH.gbw
Electron density file                           ... 31_FeH.scfp
The origin for moment calculation is the CENTER OF MASS  = ( 0.000000,  0.000000  0.483291)

-------------
DIPOLE MOMENT
-------------
                                X             Y             Z
Electronic contribution:     -0.00000       0.00000      -2.74692
Nuclear contribution   :      0.00000       0.00000       1.52035
                        -----------------------------------------
Total Dipole Moment    :     -0.00000       0.00000      -1.22657
                        -----------------------------------------
Magnitude (a.u.)       :      1.22657
Magnitude (Debye)      :      3.11770



--------------------
Rotational spectrum 
--------------------
 
Rotational constants in cm-1:     0.000000     7.149016     7.149016 
Rotational constants in MHz :     0.000000 214322.097628 214322.097628 

 Dipole components along the rotational axes: 
x,y,z [a.u.] :    -1.226571     0.000001    -0.000000 
x,y,z [Debye]:    -3.117697     0.000004    -0.000000 

 

Timings for individual modules:

Sum of individual times         ...      161.120 sec (=   2.685 min)
GTO integral calculation        ...        2.863 sec (=   0.048 min)   1.8 %
SCF iterations                  ...      158.258 sec (=   2.638 min)  98.2 %
                             ****ORCA TERMINATED NORMALLY****
TOTAL RUN TIME: 0 days 0 hours 2 minutes 41 seconds 727 msec
