
                                 *****************
                                 * O   R   C   A *
                                 *****************

           --- An Ab Initio, DFT and Semiempirical electronic structure package ---

                  #######################################################
                  #                        -***-                        #
                  #          Department of theory and spectroscopy      #
                  #               Directorship: Frank Neese             #
                  #        Max Planck Institute fuer Kohlenforschung    #
                  #                Kaiser Wilhelm Platz 1               #
                  #                 D-45470 Muelheim/Ruhr               #
                  #                      Germany                        #
                  #                                                     #
                  #                  All rights reserved                #
                  #                        -***-                        #
                  #######################################################


                         Program Version 4.2.0 -  RELEASE  -


 With contributions from (in alphabetic order):
   Daniel Aravena         : Magnetic Suceptibility
   Michael Atanasov       : Ab Initio Ligand Field Theory (pilot matlab implementation)
   Alexander A. Auer      : GIAO ZORA, VPT2
   Ute Becker             : Parallelization
   Giovanni Bistoni       : ED, misc. LED, open-shell LED, HFLED
   Martin Brehm           : Molecular dynamics
   Dmytro Bykov           : SCF Hessian
   Vijay G. Chilkuri      : MRCI spin determinant printing, contributions to CSF-ICE
   Dipayan Datta          : RHF DLPNO-CCSD density
   Achintya Kumar Dutta   : EOM-CC, STEOM-CC
   Dmitry Ganyushin       : Spin-Orbit,Spin-Spin,Magnetic field MRCI
   Miquel Garcia          : C-PCM Hessian, Gaussian charge scheme
   Yang Guo               : DLPNO-NEVPT2, CIM, IAO-localization
   Andreas Hansen         : Spin unrestricted coupled pair/coupled cluster methods
   Benjamin Helmich-Paris : CASSCF linear response (MC-RPA)
   Lee Huntington         : MR-EOM, pCC
   Robert Izsak           : Overlap fitted RIJCOSX, COSX-SCS-MP3, EOM
   Christian Kollmar      : KDIIS, OOCD, Brueckner-CCSD(T), CCSD density
   Simone Kossmann        : Meta GGA functionals, TD-DFT gradient, OOMP2, MP2 Hessian
   Martin Krupicka        : AUTO-CI
   Lucas Lang             : DCDCAS
   Dagmar Lenk            : GEPOL surface, SMD
   Dimitrios Liakos       : Extrapolation schemes; Compound Job, initial MDCI parallelization
   Dimitrios Manganas     : Further ROCIS development; embedding schemes
   Dimitrios Pantazis     : SARC Basis sets
   Taras Petrenko         : DFT Hessian,TD-DFT gradient, ASA, ECA, R-Raman, ABS, FL, XAS/XES, NRVS
   Peter Pinski           : DLPNO-MP2, DLPNO-MP2 Gradient
   Christoph Reimann      : Effective Core Potentials
   Marius Retegan         : Local ZFS, SOC
   Christoph Riplinger    : Optimizer, TS searches, QM/MM, DLPNO-CCSD(T), (RO)-DLPNO pert. Triples
   Tobias Risthaus        : Range-separated hybrids, TD-DFT gradient, RPA, STAB
   Michael Roemelt        : Original ROCIS implementation
   Masaaki Saitow         : Open-shell DLPNO-CCSD energy and density
   Barbara Sandhoefer     : DKH picture change effects
   Avijit Sen             : IP-ROCIS
   Kantharuban Sivalingam : CASSCF convergence, NEVPT2, FIC-MRCI
   Bernardo de Souza      : ESD, SOC TD-DFT
   Georgi Stoychev        : AutoAux, RI-MP2 NMR
   Willem Van den Heuvel  : Paramagnetic NMR
   Boris Wezisla          : Elementary symmetry handling
   Frank Wennmohs         : Technical directorship


 We gratefully acknowledge several colleagues who have allowed us to
 interface, adapt or use parts of their codes:
   Stefan Grimme, W. Hujo, H. Kruse,             : VdW corrections, initial TS optimization,
                  C. Bannwarth                     DFT functionals, gCP, sTDA/sTD-DF
   Ed Valeev, F. Pavosevic, A. Kumar             : LibInt (2-el integral package), F12 methods
   Garnet Chan, S. Sharma, J. Yang, R. Olivares  : DMRG
   Ulf Ekstrom                                   : XCFun DFT Library
   Mihaly Kallay                                 : mrcc  (arbitrary order and MRCC methods)
   Andreas Klamt, Michael Diedenhofen            : otool_cosmo (COSMO solvation model)
   Jiri Pittner, Ondrej Demel                    : Mk-CCSD
   Frank Weinhold                                : gennbo (NPA and NBO analysis)
   Christopher J. Cramer and Donald G. Truhlar   : smd solvation model
   Lars Goerigk                                  : TD-DFT with DH, B97 family of functionals
   V. Asgeirsson, H. Jonsson                     : NEB implementation
   FAccTs GmbH                                   : IRC, NEB, NEB-TS, Multilevel, MM, QM/MM, CI optimization
   S Lehtola, MJT Oliveira, MAL Marques          : LibXC Library


 Your calculation uses the libint2 library for the computation of 2-el integrals
 For citations please refer to: http://libint.valeyev.net

 Your ORCA version has been built with support for libXC version: 4.2.3
 For citations please refer to: https://tddft.org/programs/libxc/

 This ORCA versions uses:
   CBLAS   interface :  Fast vector & matrix operations
   LAPACKE interface :  Fast linear algebra routines
   SCALAPACK package :  Parallel linear algebra routines


Your calculation utilizes the DFT-NL dispersion correction.
Cite in your paper:
Vydrov, O. A.; Van Voorhis, T. J. Chem. Phys. 2010, 133, 244103
Hujo, W.; Grimme, S. J. Chem. Theory Comput. 2011, 7, 3866 
   

----- Orbital basis set information -----
Your calculation utilizes the basis: aug-cc-pVTZ 
    H, B-Ne : Obtained from the ccRepo (grant-hill.group.shef.ac.uk/ccrepo) Feb. 2017
              R. A. Kendall, T. H. Dunning, Jr., R. J. Harrison, J. Chem. Phys. 96, 6796 (1992)
         He : Obtained from the ccRepo (grant-hill.group.shef.ac.uk/ccrepo) Feb. 2017
              D. E. Woon, T. H. Dunning, Jr., J. Chem. Phys. 100, 2975 (1994)
  Li-Be, Na : Obtained from the ccRepo (grant-hill.group.shef.ac.uk/ccrepo) Feb. 2017
              B. P. Prascher, D. E. Woon, K. A. Peterson, T. H. Dunning, Jr., A. K. Wilson, Theor. Chem. Acc. 128, 69 (2011)
         Mg : Obtained from the Peterson Research Group Website (tyr0.chem.wsu.edu/~kipeters) Feb. 2017
              B. P. Prascher, D. E. Woon, K. A. Peterson, T. H. Dunning, Jr., A. K. Wilson, Theor. Chem. Acc. 128, 69 (2011)
      Al-Ar : Obtained from the ccRepo (grant-hill.group.shef.ac.uk/ccrepo) Feb. 2017
              D. E. Woon, T. H. Dunning, Jr., J. Chem. Phys. 98, 1358 (1993)
      Sc-Zn : Obtained from the ccRepo (grant-hill.group.shef.ac.uk/ccrepo) Feb. 2017
              N. B. Balabanov, K. A. Peterson, J. Chem. Phys. 123, 064107 (2005)
              N. B. Balabanov, K. A. Peterson, J. Chem. Phys. 125, 074110 (2006)
      Ga-Kr : Obtained from the ccRepo (grant-hill.group.shef.ac.uk/ccrepo) Feb. 2017
              A. K. Wilson, D. E. Woon, K. A. Peterson, T. H. Dunning, Jr., J. Chem. Phys. 110, 7667 (1999)
     Ag, Au : Obtained from the Peterson Research Group Website (tyr0.chem.wsu.edu/~kipeters) Feb. 2017
              K. A. Peterson, C. Puzzarini, Theor. Chem. Acc. 114, 283 (2005)

----- AuxJK basis set information -----
Your calculation utilizes the auxiliary basis: def2/JK
   H-Ba, Hf-Rn: F. Weigend, J. Comput. Chem. 29, 167 (2008).

================================================================================
                                        WARNINGS
                       Please study these warnings very carefully!
================================================================================


WARNING: your system is open-shell and RHF/RKS was chosen
  ===> : WILL SWITCH to UHF/UKS


INFO   : the flag for use of LIBINT has been found!

================================================================================
                                       INPUT FILE
================================================================================
NAME = 36_FeS.in
|  1> #
|  2> # 36_FeS wb97m-v/aug-cc-pvtz
|  3> #
|  4> ! wb97m-v aug-cc-pvtz def2/jk grid4 nofinalgrid
|  5> 
|  6> *xyz 0 5
|  7>   Fe  0.00000000000000      0.00000000000000     -0.00599090985654
|  8>   S   0.00000000000000      0.00000000000000      2.00599090985654
|  9> *
| 10> 
| 11> %pal
| 12> nprocs 24
| 13> end
| 14> 
| 15> 
| 16>                          ****END OF INPUT****
================================================================================

                       ****************************
                       * Single Point Calculation *
                       ****************************

---------------------------------
CARTESIAN COORDINATES (ANGSTROEM)
---------------------------------
  Fe     0.000000    0.000000   -0.005991
  S      0.000000    0.000000    2.005991

----------------------------
CARTESIAN COORDINATES (A.U.)
----------------------------
  NO LB      ZA    FRAG     MASS         X           Y           Z
   0 Fe   26.0000    0    55.850    0.000000    0.000000   -0.011321
   1 S    16.0000    0    32.060    0.000000    0.000000    3.790773

--------------------------------
INTERNAL COORDINATES (ANGSTROEM)
--------------------------------
 Fe     0   0   0     0.000000000000     0.00000000     0.00000000
 S      1   0   0     2.011981819713     0.00000000     0.00000000

---------------------------
INTERNAL COORDINATES (A.U.)
---------------------------
 Fe     0   0   0     0.000000000000     0.00000000     0.00000000
 S      1   0   0     3.802094625686     0.00000000     0.00000000

---------------------
BASIS SET INFORMATION
---------------------
There are 2 groups of distinct atoms

 Group   1 Type Fe  : 116s77p23d3f2g contracted to 8s7p5d3f2g pattern {19191919191911/151515151511/77711/111/11}
 Group   2 Type S   : 42s17p3d2f contracted to 6s5p3d2f pattern {131313111/77111/111/11}

Atom   0Fe   basis set group =>   1
Atom   1S    basis set group =>   2
----------------------------------
AUXILIARY/JK BASIS SET INFORMATION
----------------------------------
There are 2 groups of distinct atoms

 Group   1 Type Fe  : 19s14p12d10f7g3h1i contracted to 16s13p11d9f5g3h1i pattern {4111111111111111/2111111111111/21111111111/211111111/31111/111/1}
 Group   2 Type S   : 16s12p10d4f1g contracted to 13s11p9d4f1g pattern {4111111111111/21111111111/211111111/1111/1}

Atom   0Fe   basis set group =>   1
Atom   1S    basis set group =>   2


           ************************************************************
           *        Program running with 24 parallel MPI-processes    *
           *              working on a common directory               *
           ************************************************************
------------------------------------------------------------------------------
                           ORCA GTO INTEGRAL CALCULATION
------------------------------------------------------------------------------

                         BASIS SET STATISTICS AND STARTUP INFO

 # of primitive gaussian shells          ...  285
 # of primitive gaussian functions       ...  623
 # of contracted shells                  ...   41
 # of contracted basis functions         ...  143
 Highest angular momentum                ...    4
 Maximum contraction depth               ...   19
 Integral package used                   ... LIBINT
 Integral threshhold            Thresh   ...  1.000e-10
 Primitive cut-off              TCut     ...  1.000e-11


------------------------------ INTEGRAL EVALUATION ----------------------------


 * One electron integrals 
 Pre-screening matrix                    ... done
 Shell pair data                         ... done (   0.001 sec)



           ************************************************************
           *        Program running with 24 parallel MPI-processes    *
           *              working on a common directory               *
           ************************************************************
-------------------------------------------------------------------------------
                                 ORCA SCF
-------------------------------------------------------------------------------

------------
SCF SETTINGS
------------
Hamiltonian:
 Density Functional     Method          .... DFT(GTOs)
 Exchange Functional    Exchange        .... WB97M-V
 Correlation Functional Correlation     .... WB97M-V
 Gradients option       PostSCFGGA      .... off
 Hybrid DFT is turned on
   Fraction HF Exchange ScalHFX         ....  0.150000
   Scaling of DF-GGA-X  ScalDFX         ....  0.000000
   Scaling of DF-GGA-C  ScalDFC         ....  1.000000
   Scaling of DF-LDA-C  ScalLDAC        ....  1.000000
   Perturbative correction              ....  0.000000
   Density functional embedding theory  .... OFF
 Long-range corrected/Screened/Range-Separated Hybrid DFT is turned on
   Amount of maximum screened exact exchange              ....  0.850000
   Range separation parameter mu (erf(mu*r12)/r12)        ....  0.300000
   NL short-range parameter             ....  6.000000
   NL long-range parameter              ....  0.010000


General Settings:
 Integral files         IntName         .... 36_FeS
 Hartree-Fock type      HFTyp           .... UHF
 Total Charge           Charge          ....    0
 Multiplicity           Mult            ....    5
 Number of Electrons    NEL             ....   42
 Basis Dimension        Dim             ....  143
 Nuclear Repulsion      ENuc            ....    109.4133736677 Eh

Convergence Acceleration:
 DIIS                   CNVDIIS         .... on
   Start iteration      DIISMaxIt       ....    12
   Startup error        DIISStart       ....  0.200000
   # of expansion vecs  DIISMaxEq       ....     5
   Bias factor          DIISBfac        ....   1.050
   Max. coefficient     DIISMaxC        ....  10.000
 Newton-Raphson         CNVNR           .... off
 SOSCF                  CNVSOSCF        .... off
 Level Shifting         CNVShift        .... on
   Level shift para.    LevelShift      ....    0.2500
   Turn off err/grad.   ShiftErr        ....    0.0010
 Zerner damping         CNVZerner       .... off
 Static damping         CNVDamp         .... on
   Fraction old density DampFac         ....    0.7000
   Max. Damping (<1)    DampMax         ....    0.9800
   Min. Damping (>=0)   DampMin         ....    0.0000
   Turn off err/grad.   DampErr         ....    0.1000
 Fernandez-Rico         CNVRico         .... off

SCF Procedure:
 Maximum # iterations   MaxIter         ....   125
 SCF integral mode      SCFMode         .... Direct
   Integral package                     .... LIBINT
 Reset frequency        DirectResetFreq ....    20
 Integral Threshold     Thresh          ....  1.000e-10 Eh
 Primitive CutOff       TCut            ....  1.000e-11 Eh

Convergence Tolerance:
 Convergence Check Mode ConvCheckMode   .... Total+1el-Energy
 Convergence forced     ConvForced      .... 0
 Energy Change          TolE            ....  1.000e-06 Eh
 1-El. energy change                    ....  1.000e-03 Eh
 DIIS Error             TolErr          ....  1.000e-06


Diagonalization of the overlap matrix:
Smallest eigenvalue                        ... 9.650e-05
Time for diagonalization                   ...    0.005 sec
Threshold for overlap eigenvalues          ... 1.000e-08
Number of eigenvalues below threshold      ... 0
Time for construction of square roots      ...    0.003 sec
Total time needed                          ...    0.008 sec

-------------------
DFT GRID GENERATION
-------------------

General Integration Accuracy     IntAcc      ...  4.670
Radial Grid Type                 RadialGrid  ... Gauss-Chebyshev
Angular Grid (max. acc.)         AngularGrid ... Lebedev-302
Angular grid pruning method      GridPruning ... 3 (G Style)
Weight generation scheme         WeightScheme... Becke
Basis function cutoff            BFCut       ...    1.0000e-10
Integration weight cutoff        WCut        ...    1.0000e-14
Grids for H and He will be reduced by one unit

# of grid points (after initial pruning)     ...  16486 (   0.0 sec)
# of grid points (after weights+screening)   ...  16457 (   0.0 sec)
nearest neighbour list constructed           ...    0.0 sec
Grid point re-assignment to atoms done       ...    0.0 sec
Grid point division into batches done        ...    0.1 sec
Reduced shell lists constructed in    0.1 sec

Total number of grid points                  ...    16457
Total number of batches                      ...      258
Average number of points per batch           ...       63
Average number of grid points per atom       ...     8228
Average number of shells per batch           ...    14.83 (36.18%)
Average number of basis functions per batch  ...    37.50 (26.22%)
Average number of large shells per batch     ...     7.67 (51.69%)
Average number of large basis fcns per batch ...    19.17 (51.11%)
Maximum spatial batch extension              ...  24.49, 24.19, 18.13 au
Average spatial batch extension              ...   0.84,  0.83,  0.65 au

Time for grid setup =    0.157 sec

------------------------------
INITIAL GUESS: MODEL POTENTIAL
------------------------------
Loading Hartree-Fock densities                     ... done
Calculating cut-offs                               ... done
Setting up the integral package                    ... done
Initializing the effective Hamiltonian             ... done
Starting the Coulomb interaction                   ... done (   0.0 sec)
Reading the grid                                   ... done
Mapping shells                                     ... done
Starting the XC term evaluation                    ... done (   0.0 sec)
  promolecular density results
     # of electrons  =     42.000005632
     EX              =    -78.979495000
     EC              =     -1.758936648
     EX+EC           =    -80.738431648
Transforming the Hamiltonian                       ... done (   0.0 sec)
Diagonalizing the Hamiltonian                      ... done (   0.0 sec)
Back transforming the eigenvectors                 ... done (   0.0 sec)
Now organizing SCF variables                       ... done
                      ------------------
                      INITIAL GUESS DONE (   0.3 sec)
                      ------------------
--------------
SCF ITERATIONS
--------------
ITER       Energy         Delta-E        Max-DP      RMS-DP      [F,P]     Damp
               ***  Starting incremental Fock matrix formation  ***
  0  -1661.9263257765   0.00000000000010.12537780  0.16004472  0.1205269 0.7000
  1  -1661.8442903113   0.082035465246 3.02741472  0.04808250  0.0527889 0.7000
                               ***Turning on DIIS***
  2  -1661.8902178824  -0.045927571123 7.06117709  0.11219548  0.0368745 0.0000
  3  -1661.9982068000  -0.107988917594 0.02585881  0.00052899  0.0170011 0.0000
  4  -1662.0011656033  -0.002958803246 0.01150114  0.00025385  0.0325963 0.0000
  5  -1662.0031907199  -0.002025116612 0.01469231  0.00025882  0.0115722 0.0000
  6  -1662.0048624017  -0.001671681797134.94525850  1.05031909  0.0088659 0.0000
  7  -1661.6213130821   0.383549319599 0.35103221  0.00270988  0.0971441 0.0000
  8  -1661.6227011679  -0.001388085795 5.34564511  0.04358442  0.0962804 0.0000
  9  -1661.6268044331  -0.004103265217 0.33473763  0.00291162  0.1009705 0.7000
 10  -1661.6267419501   0.000062482950 5.08677795  0.04102210  0.1008855 0.7000
 11  -1661.6296940298  -0.00295207967037.35035616  0.29053877  0.1001354 0.7000
 12  -1661.7546044805  -0.12491045071587.15076010  0.67792362  0.0361985 0.0000
 13  -1661.9843530956  -0.229748615069 0.01562918  0.00039577  0.0675776 0.0000
 14  -1661.9943561731  -0.010003077529 0.01080768  0.00022659  0.0514726 0.0000
 15  -1661.9993308638  -0.004974690735 0.00842716  0.00016948  0.0364617 0.0000
 16  -1662.0017225072  -0.002391643406 0.00537989  0.00010601  0.0300061 0.0000
 17  -1662.0031278343  -0.001405327065 0.02266689  0.00041787  0.0273928 0.0000
 18  -1662.0062531340  -0.003125299650 0.00569886  0.00014354  0.0102424 0.0000
 19  -1662.0065487349  -0.000295600937 0.00325205  0.00007302  0.0067836 0.0000
               *** Restarting incremental Fock matrix formation ***
                                   *** Resetting DIIS ***
 20  -1662.0066036097  -0.000054874816 0.00170906  0.00004657  0.0034915 0.0000
 21  -1662.0065938581   0.000009751621 0.00141974  0.00003377  0.0020614 0.0000
 22  -1662.0065911456   0.000002712479 0.00250096  0.00003613  0.0015900 0.0000
 23  -1662.0065880856   0.000003060038 0.00193351  0.00002711  0.0018602 0.0000
 24  -1662.0065814524   0.000006633177 0.00175172  0.00001982  0.0011633 0.0000
 25  -1662.0065723085   0.000009143938 0.00302202  0.00002893  0.0006985 0.0000
 26  -1662.0065523036   0.000020004895 0.00080266  0.00001023  0.0002890 0.0000
 27  -1662.0065526706  -0.000000367021 0.00084952  0.00000749  0.0001979 0.0000
 28  -1662.0065509803   0.000001690261 0.00064958  0.00000636  0.0001302 0.0000
 29  -1662.0065529148  -0.000001934449 0.00055219  0.00000533  0.0000790 0.0000
 30  -1662.0065516978   0.000001216933 0.00034866  0.00000337  0.0000590 0.0000
                 **** Energy Check signals convergence ****

               *****************************************************
               *                     SUCCESS                       *
               *           SCF CONVERGED AFTER  31 CYCLES          *
               *****************************************************


Setting up the DFT-NL grid :

General Integration Accuracy     IntAcc      ...  4.340
Radial Grid Type                 RadialGrid  ... Gauss-Chebyshev
Angular Grid (max. acc.)         AngularGrid ... Lebedev-110
Angular grid pruning method      GridPruning ... 3 (G Style)
Weight generation scheme         WeightScheme... Becke
Basis function cutoff            BFCut       ...    1.0000e-10
Integration weight cutoff        WCut        ...    1.0000e-14
Grids for H and He will be reduced by one unit

# of grid points (after initial pruning)     ...   4718 (   0.0 sec)
# of grid points (after weights+screening)   ...   4693 (   0.0 sec)
nearest neighbour list constructed           ...    0.0 sec
Grid point re-assignment to atoms done       ...    0.0 sec
Grid point division into batches done        ...    0.0 sec
Reduced shell lists constructed in    0.0 sec

Total number of grid points                  ...     4693
Total number of batches                      ...       75
Average number of points per batch           ...       62
Average number of grid points per atom       ...     2346
Average number of shells per batch           ...    23.20 (56.59%)
Average number of basis functions per batch  ...    71.20 (49.79%)
Average number of large shells per batch     ...    16.80 (72.41%)
Average number of large basis fcns per batch ...    49.60 (69.66%)
Maximum spatial batch extension              ...  18.98, 28.73, 16.15 au
Average spatial batch extension              ...   0.94,  1.29,  0.86 au

Final grid set up in    0.0 sec

-------------------------------------------------------------------------------
                         DFT-NL dispersion correction                          
-------------------------------------------------------------------------------

SC Energy -1662.006552561 
NL    Energy 0.175497715 
SC+NL Energy -1661.831054847 
NL done in    0.0 sec
-------------------------------------------------------------------------------

----------------
TOTAL SCF ENERGY
----------------

Total Energy       :        -1661.83105485 Eh          -45220.72198 eV

Components:
Nuclear Repulsion  :          109.41337367 Eh            2977.28926 eV
Electronic Energy  :        -1771.24442851 Eh          -48198.01124 eV
One Electron Energy:        -2514.93771674 Eh          -68434.93444 eV
Two Electron Energy:          743.69328823 Eh           20236.92320 eV

Virial components:
Potential Energy   :        -3321.26917010 Eh          -90376.32876 eV
Kinetic Energy     :         1659.43811525 Eh           45155.60678 eV
Virial Ratio       :            2.00144202


DFT components:
N(Alpha)           :       23.000008082312 electrons
N(Beta)            :       19.000008145563 electrons
N(Total)           :       42.000016227875 electrons
E(X)               :      -61.760084205856 Eh       
E(C)               :       -2.030640841138 Eh       
NL Energy, E(C,NL) :        0.175497714554 Eh       
E(XC)              :      -63.615227332440 Eh       
DFET-embed. en.    :        0.000000000000 Eh       

---------------
SCF CONVERGENCE
---------------

  Last Energy change         ...   -8.6325e-07  Tolerance :   1.0000e-06
  Last MAX-Density change    ...    2.0844e-04  Tolerance :   1.0000e-05
  Last RMS-Density change    ...    2.2936e-06  Tolerance :   1.0000e-06
  Last DIIS Error            ...    3.2822e-05  Tolerance :   1.0000e-06

             **** THE GBW FILE WAS UPDATED (36_FeS.gbw) ****
             **** DENSITY FILE WAS UPDATED (36_FeS.scfp) ****
             **** ENERGY FILE WAS UPDATED (36_FeS.en.tmp) ****
----------------------
UHF SPIN CONTAMINATION
----------------------

Warning: in a DFT calculation there is little theoretical justification to 
         calculate <S**2> as in Hartree-Fock theory. We will do it anyways
         but you should keep in mind that the values have only limited relevance

Expectation value of <S**2>     :     6.017973
Ideal value S*(S+1) for S=2.0   :     6.000000
Deviation                       :     0.017973

             **** THE GBW FILE WAS UPDATED (36_FeS.gbw) ****
             **** DENSITY FILE WAS UPDATED (36_FeS.scfp) ****
----------------
ORBITAL ENERGIES
----------------
                 SPIN UP ORBITALS
  NO   OCC          E(Eh)            E(eV) 
   0   1.0000    -256.600802     -6982.4628 
   1   1.0000     -89.150699     -2425.9139 
   2   1.0000     -30.319258      -825.0290 
   3   1.0000     -26.097322      -710.1442 
   4   1.0000     -26.075380      -709.5472 
   5   1.0000     -26.075221      -709.5428 
   6   1.0000      -8.064489      -219.4459 
   7   1.0000      -5.972009      -162.5066 
   8   1.0000      -5.971658      -162.4971 
   9   1.0000      -5.971618      -162.4960 
  10   1.0000      -3.706371      -100.8555 
  11   1.0000      -2.492220       -67.8168 
  12   1.0000      -2.445918       -66.5568 
  13   1.0000      -2.445589       -66.5478 
  14   1.0000      -0.751773       -20.4568 
  15   1.0000      -0.496237       -13.5033 
  16   1.0000      -0.495643       -13.4871 
  17   1.0000      -0.495517       -13.4837 
  18   1.0000      -0.467108       -12.7107 
  19   1.0000      -0.441383       -12.0106 
  20   1.0000      -0.345307        -9.3963 
  21   1.0000      -0.308360        -8.3909 
  22   1.0000      -0.308277        -8.3886 
  23   0.0000      -0.061268        -1.6672 
  24   0.0000       0.006859         0.1866 
  25   0.0000       0.006879         0.1872 
  26   0.0000       0.012900         0.3510 
  27   0.0000       0.021063         0.5731 
  28   0.0000       0.052047         1.4163 
  29   0.0000       0.052077         1.4171 
  30   0.0000       0.069558         1.8928 
  31   0.0000       0.073038         1.9875 
  32   0.0000       0.073311         1.9949 
  33   0.0000       0.094997         2.5850 
  34   0.0000       0.098692         2.6855 
  35   0.0000       0.098719         2.6863 
  36   0.0000       0.123908         3.3717 
  37   0.0000       0.123922         3.3721 
  38   0.0000       0.128264         3.4902 
  39   0.0000       0.142319         3.8727 
  40   0.0000       0.210319         5.7231 
  41   0.0000       0.210373         5.7246 
  42   0.0000       0.275581         7.4989 
  43   0.0000       0.279110         7.5950 
  44   0.0000       0.279554         7.6070 
  45   0.0000       0.279978         7.6186 
  46   0.0000       0.327883         8.9221 
  47   0.0000       0.327932         8.9235 
  48   0.0000       0.330001         8.9798 
  49   0.0000       0.330571         8.9953 
  50   0.0000       0.362598         9.8668 
  51   0.0000       0.391523        10.6539 
  52   0.0000       0.391552        10.6547 
  53   0.0000       0.508969        13.8497 
  54   0.0000       0.544069        14.8049 
  55   0.0000       0.580235        15.7890 
  56   0.0000       0.580287        15.7904 
  57   0.0000       0.691017        18.8035 
  58   0.0000       0.697647        18.9839 
  59   0.0000       0.697790        18.9878 
  60   0.0000       0.708105        19.2685 
  61   0.0000       0.708160        19.2700 
  62   0.0000       0.782423        21.2908 
  63   0.0000       0.782424        21.2908 
  64   0.0000       0.785557        21.3761 
  65   0.0000       0.814593        22.1662 
  66   0.0000       0.814738        22.1702 
  67   0.0000       0.816908        22.2292 
  68   0.0000       0.817552        22.2467 
  69   0.0000       0.928697        25.2711 
  70   0.0000       0.943672        25.6786 
  71   0.0000       0.943673        25.6787 
  72   0.0000       0.981299        26.7025 
  73   0.0000       0.981368        26.7044 
  74   0.0000       1.060721        28.8637 
  75   0.0000       1.086286        29.5593 
  76   0.0000       1.087365        29.5887 
  77   0.0000       1.106808        30.1178 
  78   0.0000       1.106899        30.1203 
  79   0.0000       1.132469        30.8161 
  80   0.0000       1.218523        33.1577 
  81   0.0000       1.223874        33.3033 
  82   0.0000       1.417281        38.5662 
  83   0.0000       1.558266        42.4026 
  84   0.0000       1.558361        42.4052 
  85   0.0000       1.880096        51.1600 
  86   0.0000       1.880200        51.1628 
  87   0.0000       1.932709        52.5917 
  88   0.0000       1.987242        54.0756 
  89   0.0000       1.987330        54.0780 
  90   0.0000       2.154754        58.6338 
  91   0.0000       2.179007        59.2938 
  92   0.0000       2.179101        59.2963 
  93   0.0000       2.192315        59.6559 
  94   0.0000       2.192315        59.6559 
  95   0.0000       2.197434        59.7952 
  96   0.0000       2.197837        59.8062 
  97   0.0000       2.246624        61.1338 
  98   0.0000       2.328094        63.3507 
  99   0.0000       2.328207        63.3537 
 100   0.0000       2.721107        74.0451 
 101   0.0000       2.724640        74.1412 
 102   0.0000       2.724656        74.1416 
 103   0.0000       2.778740        75.6134 
 104   0.0000       2.791067        75.9488 
 105   0.0000       2.900295        78.9210 
 106   0.0000       2.900433        78.9248 
 107   0.0000       2.945276        80.1450 
 108   0.0000       3.085247        83.9538 
 109   0.0000       3.085536        83.9617 
 110   0.0000       3.218938        87.5917 
 111   0.0000       3.368433        91.6597 
 112   0.0000       3.369402        91.6861 
 113   0.0000       3.369406        91.6862 
 114   0.0000       3.369708        91.6944 
 115   0.0000       3.444473        93.7289 
 116   0.0000       3.450823        93.9017 
 117   0.0000       3.595520        97.8391 
 118   0.0000       3.734245       101.6140 
 119   0.0000       3.734358       101.6170 
 120   0.0000       3.885423       105.7277 
 121   0.0000       4.579481       124.6140 
 122   0.0000       4.606012       125.3360 
 123   0.0000       4.936953       134.3413 
 124   0.0000       4.937081       134.3448 
 125   0.0000       5.463876       148.6796 
 126   0.0000       6.042226       164.4173 
 127   0.0000       9.013090       245.2586 
 128   0.0000       9.018495       245.4057 
 129   0.0000       9.018579       245.4080 
 130   0.0000       9.034164       245.8321 
 131   0.0000       9.061339       246.5716 
 132   0.0000       9.061575       246.5780 
 133   0.0000       9.177206       249.7245 
 134   0.0000       9.729348       264.7490 
 135   0.0000       9.729368       264.7496 
 136   0.0000       9.744591       265.1638 
 137   0.0000       9.745185       265.1800 
 138   0.0000       9.746123       265.2055 
 139   0.0000       9.762891       265.6618 
 140   0.0000       9.889235       269.0998 
 141   0.0000       9.889394       269.1041 
 142   0.0000      10.006415       272.2884 

                 SPIN DOWN ORBITALS
  NO   OCC          E(Eh)            E(eV) 
   0   1.0000    -256.598855     -6982.4098 
   1   1.0000     -89.148787     -2425.8618 
   2   1.0000     -30.241487      -822.9127 
   3   1.0000     -26.029213      -708.2909 
   4   1.0000     -26.017004      -707.9587 
   5   1.0000     -26.016954      -707.9573 
   6   1.0000      -8.062603      -219.3946 
   7   1.0000      -5.971540      -162.4939 
   8   1.0000      -5.967181      -162.3753 
   9   1.0000      -5.967175      -162.3751 
  10   1.0000      -3.548438       -96.5579 
  11   1.0000      -2.293309       -62.4041 
  12   1.0000      -2.285261       -62.1851 
  13   1.0000      -2.285164       -62.1825 
  14   1.0000      -0.734547       -19.9881 
  15   1.0000      -0.368618       -10.0306 
  16   1.0000      -0.361659        -9.8412 
  17   1.0000      -0.325563        -8.8590 
  18   1.0000      -0.325474        -8.8566 
  19   0.0000      -0.088743        -2.4148 
  20   0.0000      -0.032337        -0.8799 
  21   0.0000      -0.031618        -0.8604 
  22   0.0000      -0.017684        -0.4812 
  23   0.0000       0.003012         0.0820 
  24   0.0000       0.013665         0.3719 
  25   0.0000       0.014750         0.4014 
  26   0.0000       0.016438         0.4473 
  27   0.0000       0.019962         0.5432 
  28   0.0000       0.041178         1.1205 
  29   0.0000       0.041332         1.1247 
  30   0.0000       0.055620         1.5135 
  31   0.0000       0.060547         1.6476 
  32   0.0000       0.066265         1.8032 
  33   0.0000       0.083768         2.2794 
  34   0.0000       0.086506         2.3539 
  35   0.0000       0.091039         2.4773 
  36   0.0000       0.112222         3.0537 
  37   0.0000       0.117143         3.1876 
  38   0.0000       0.117242         3.1903 
  39   0.0000       0.135942         3.6992 
  40   0.0000       0.197566         5.3760 
  41   0.0000       0.197845         5.3836 
  42   0.0000       0.267138         7.2692 
  43   0.0000       0.278559         7.5800 
  44   0.0000       0.283916         7.7257 
  45   0.0000       0.286827         7.8050 
  46   0.0000       0.305719         8.3190 
  47   0.0000       0.313497         8.5307 
  48   0.0000       0.330371         8.9898 
  49   0.0000       0.331161         9.0114 
  50   0.0000       0.366896         9.9838 
  51   0.0000       0.381284        10.3753 
  52   0.0000       0.381371        10.3776 
  53   0.0000       0.496254        13.5038 
  54   0.0000       0.549063        14.9408 
  55   0.0000       0.578178        15.7330 
  56   0.0000       0.578228        15.7344 
  57   0.0000       0.698912        19.0184 
  58   0.0000       0.701880        19.0991 
  59   0.0000       0.702540        19.1171 
  60   0.0000       0.712861        19.3979 
  61   0.0000       0.713044        19.4029 
  62   0.0000       0.779586        21.2136 
  63   0.0000       0.779684        21.2163 
  64   0.0000       0.787447        21.4275 
  65   0.0000       0.815691        22.1961 
  66   0.0000       0.819328        22.2951 
  67   0.0000       0.819859        22.3095 
  68   0.0000       0.820035        22.3143 
  69   0.0000       0.928149        25.2562 
  70   0.0000       0.928446        25.2643 
  71   0.0000       0.942312        25.6416 
  72   0.0000       0.997372        27.1399 
  73   0.0000       0.997493        27.1432 
  74   0.0000       1.060711        28.8634 
  75   0.0000       1.081053        29.4169 
  76   0.0000       1.092523        29.7291 
  77   0.0000       1.101653        29.9775 
  78   0.0000       1.101806        29.9817 
  79   0.0000       1.129521        30.7358 
  80   0.0000       1.241693        33.7882 
  81   0.0000       1.248395        33.9705 
  82   0.0000       1.436363        39.0854 
  83   0.0000       1.582602        43.0648 
  84   0.0000       1.582748        43.0687 
  85   0.0000       1.900663        51.7197 
  86   0.0000       1.900974        51.7281 
  87   0.0000       1.959175        53.3119 
  88   0.0000       1.997439        54.3531 
  89   0.0000       1.997471        54.3539 
  90   0.0000       2.156909        58.6925 
  91   0.0000       2.190733        59.6129 
  92   0.0000       2.190738        59.6130 
  93   0.0000       2.205118        60.0043 
  94   0.0000       2.205477        60.0141 
  95   0.0000       2.210788        60.1586 
  96   0.0000       2.210788        60.1586 
  97   0.0000       2.248775        61.1923 
  98   0.0000       2.340914        63.6995 
  99   0.0000       2.340954        63.7006 
 100   0.0000       2.775284        75.5193 
 101   0.0000       2.790034        75.9207 
 102   0.0000       2.790133        75.9234 
 103   0.0000       2.845578        77.4321 
 104   0.0000       2.860829        77.8471 
 105   0.0000       2.962658        80.6180 
 106   0.0000       2.962831        80.6227 
 107   0.0000       3.033242        82.5387 
 108   0.0000       3.167418        86.1898 
 109   0.0000       3.167576        86.1941 
 110   0.0000       3.284266        89.3694 
 111   0.0000       3.379102        91.9500 
 112   0.0000       3.391172        92.2785 
 113   0.0000       3.391241        92.2804 
 114   0.0000       3.401842        92.5688 
 115   0.0000       3.458889        94.1212 
 116   0.0000       3.466850        94.3378 
 117   0.0000       3.607016        98.1519 
 118   0.0000       3.753451       102.1366 
 119   0.0000       3.753584       102.1402 
 120   0.0000       3.950149       107.4890 
 121   0.0000       4.682364       127.4136 
 122   0.0000       4.735999       128.8731 
 123   0.0000       5.065310       137.8341 
 124   0.0000       5.065585       137.8416 
 125   0.0000       5.474467       148.9678 
 126   0.0000       6.148819       167.3179 
 127   0.0000       9.158299       249.2100 
 128   0.0000       9.158334       249.2109 
 129   0.0000       9.175166       249.6690 
 130   0.0000       9.204647       250.4712 
 131   0.0000       9.233781       251.2640 
 132   0.0000       9.234039       251.2710 
 133   0.0000       9.346313       254.3261 
 134   0.0000       9.844487       267.8821 
 135   0.0000       9.844496       267.8824 
 136   0.0000       9.846080       267.9255 
 137   0.0000       9.851806       268.0813 
 138   0.0000       9.866291       268.4754 
 139   0.0000       9.879545       268.8361 
 140   0.0000      10.008998       272.3587 
 141   0.0000      10.009179       272.3636 
 142   0.0000      10.127064       275.5714 

                    ********************************
                    * MULLIKEN POPULATION ANALYSIS *
                    ********************************

--------------------------------------------
MULLIKEN ATOMIC CHARGES AND SPIN POPULATIONS
--------------------------------------------
   0 Fe:    0.320909    3.513960
   1 S :   -0.320909    0.486040
Sum of atomic charges         :    0.0000000
Sum of atomic spin populations:    4.0000000

-----------------------------------------------------
MULLIKEN REDUCED ORBITAL CHARGES AND SPIN POPULATIONS
-----------------------------------------------------
CHARGE
  0 Fes       :     6.690948  s :     6.690948
      pz      :     4.116726  p :    12.356607
      px      :     4.119896
      py      :     4.119985
      dz2     :     1.141019  d :     6.615620
      dxz     :     1.239023
      dyz     :     1.238032
      dx2y2   :     0.999141
      dxy     :     1.998406
      f0      :     0.003357  f :     0.014933
      f+1     :     0.005603
      f-1     :     0.005605
      f+2     :     0.000089
      f-2     :     0.000199
      f+3     :     0.000040
      f-3     :     0.000040
      g0      :     0.000334  g :     0.000983
      g+1     :     0.000307
      g-1     :     0.000307
      g+2     :     0.000004
      g-2     :     0.000016
      g+3     :     0.000001
      g-3     :     0.000001
      g+4     :     0.000012
      g-4     :     0.000000
  1 S s       :     5.806489  s :     5.806489
      pz      :     3.234357  p :    10.470417
      px      :     3.617568
      py      :     3.618492
      dz2     :     0.006032  d :     0.039579
      dxz     :     0.016190
      dyz     :     0.016169
      dx2y2   :     0.000444
      dxy     :     0.000745
      f0      :     0.000741  f :     0.004423
      f+1     :     0.001371
      f-1     :     0.001369
      f+2     :     0.000323
      f-2     :     0.000620
      f+3     :     0.000000
      f-3     :     0.000000

SPIN
  0 Fes       :     0.198688  s :     0.198688
      pz      :    -0.004400  p :     0.033504
      px      :     0.018968
      py      :     0.018935
      dz2     :     0.776617  d :     3.279294
      dxz     :     0.751432
      dyz     :     0.752441
      dx2y2   :     0.999140
      dxy     :    -0.000337
      f0      :     0.000175  f :     0.002642
      f+1     :     0.001220
      f-1     :     0.001217
      f+2     :     0.000089
      f-2     :     0.000005
      f+3     :    -0.000032
      f-3     :    -0.000032
      g0      :    -0.000056  g :    -0.000168
      g+1     :    -0.000059
      g-1     :    -0.000059
      g+2     :     0.000004
      g-2     :     0.000003
      g+3     :     0.000001
      g-3     :     0.000001
      g+4     :    -0.000002
      g-4     :     0.000000
  1 S s       :     0.013757  s :     0.013757
      pz      :     0.012723  p :     0.479397
      px      :     0.233836
      py      :     0.232839
      dz2     :     0.002013  d :    -0.006509
      dxz     :    -0.004617
      dyz     :    -0.004596
      dx2y2   :     0.000444
      dxy     :     0.000247
      f0      :     0.000472  f :    -0.000605
      f+1     :    -0.000748
      f-1     :    -0.000746
      f+2     :     0.000323
      f-2     :     0.000094
      f+3     :    -0.000000
      f-3     :    -0.000000


                     *******************************
                     * LOEWDIN POPULATION ANALYSIS *
                     *******************************

-------------------------------------------
LOEWDIN ATOMIC CHARGES AND SPIN POPULATIONS
-------------------------------------------
   0 Fe:    0.146845    3.572340
   1 S :   -0.146845    0.427660

----------------------------------------------------
LOEWDIN REDUCED ORBITAL CHARGES AND SPIN POPULATIONS
----------------------------------------------------
CHARGE
  0 Fes       :     6.372297  s :     6.372297
      pz      :     4.225891  p :    12.525895
      px      :     4.149916
      py      :     4.150088
      dz2     :     1.265154  d :     6.822848
      dxz     :     1.294095
      dyz     :     1.293230
      dx2y2   :     0.991585
      dxy     :     1.978785
      f0      :     0.044430  f :     0.127454
      f+1     :     0.040807
      f-1     :     0.040833
      f+2     :     0.000360
      f-2     :     0.000943
      f+3     :     0.000040
      f-3     :     0.000040
      g0      :     0.001836  g :     0.004662
      g+1     :     0.001400
      g-1     :     0.001401
      g+2     :     0.000003
      g-2     :     0.000006
      g+3     :     0.000001
      g-3     :     0.000001
      g+4     :     0.000012
      g-4     :     0.000000
  1 S s       :     5.458057  s :     5.458057
      pz      :     3.408943  p :    10.267679
      px      :     3.429004
      py      :     3.429733
      dz2     :     0.133810  d :     0.232293
      dxz     :     0.044765
      dyz     :     0.044719
      dx2y2   :     0.002378
      dxy     :     0.006620
      f0      :     0.089585  f :     0.188816
      f+1     :     0.039971
      f-1     :     0.039954
      f+2     :     0.005674
      f-2     :     0.013632
      f+3     :     0.000000
      f-3     :     0.000000

SPIN
  0 Fes       :     0.189119  s :     0.189119
      pz      :     0.002998  p :     0.125103
      px      :     0.061112
      py      :     0.060994
      dz2     :     0.759486  d :     3.237105
      dxz     :     0.741169
      dyz     :     0.742051
      dx2y2   :     0.991584
      dxy     :     0.002814
      f0      :     0.000077  f :     0.020725
      f+1     :     0.010249
      f-1     :     0.010218
      f+2     :     0.000360
      f-2     :    -0.000115
      f+3     :    -0.000032
      f-3     :    -0.000032
      g0      :    -0.000104  g :     0.000287
      g+1     :     0.000192
      g-1     :     0.000191
      g+2     :     0.000003
      g-2     :     0.000006
      g+3     :     0.000001
      g-3     :     0.000001
      g+4     :    -0.000002
      g-4     :     0.000000
  1 S s       :     0.008905  s :     0.008905
      pz      :     0.027803  p :     0.367995
      px      :     0.170491
      py      :     0.169701
      dz2     :     0.008446  d :     0.023280
      dxz     :     0.006822
      dyz     :     0.006863
      dx2y2   :     0.002378
      dxy     :    -0.001230
      f0      :     0.003258  f :     0.027480
      f+1     :     0.009997
      f-1     :     0.010013
      f+2     :     0.005674
      f-2     :    -0.001462
      f+3     :    -0.000000
      f-3     :    -0.000000


                      *****************************
                      * MAYER POPULATION ANALYSIS *
                      *****************************

  NA   - Mulliken gross atomic population
  ZA   - Total nuclear charge
  QA   - Mulliken gross atomic charge
  VA   - Mayer's total valence
  BVA  - Mayer's bonded valence
  FA   - Mayer's free valence

  ATOM       NA         ZA         QA         VA         BVA        FA
  0 Fe    25.6791    26.0000     0.3209     5.4432     2.2548     3.1884
  1 S     16.3209    16.0000    -0.3209     2.3742     2.2548     0.1194

  Mayer bond orders larger than 0.100000
B(  0-Fe,  1-S ) :   2.2548 

-------
TIMINGS
-------

Total SCF time: 0 days 0 hours 8 min 25 sec 

Total time                  ....     505.858 sec
Sum of individual times     ....     505.497 sec  ( 99.9%)

Fock matrix formation       ....     504.969 sec  ( 99.8%)
  XC integration            ....       1.309 sec  (  0.3% of F)
    Basis function eval.    ....       0.167 sec  ( 12.8% of XC)
    Density eval.           ....       0.188 sec  ( 14.3% of XC)
    XC-Functional eval.     ....       0.041 sec  (  3.1% of XC)
    XC-Potential eval.      ....       0.540 sec  ( 41.2% of XC)
Diagonalization             ....       0.170 sec  (  0.0%)
Density matrix formation    ....       0.021 sec  (  0.0%)
Population analysis         ....       0.007 sec  (  0.0%)
Initial guess               ....       0.099 sec  (  0.0%)
Orbital Transformation      ....       0.000 sec  (  0.0%)
Orbital Orthonormalization  ....       0.000 sec  (  0.0%)
DIIS solution               ....       0.060 sec  (  0.0%)
Grid generation             ....       0.172 sec  (  0.0%)

-------------------------   --------------------
FINAL SINGLE POINT ENERGY     -1661.831054846539
-------------------------   --------------------


                            ***************************************
                            *     ORCA property calculations      *
                            ***************************************

                                    ---------------------
                                    Active property flags
                                    ---------------------
   (+) Dipole Moment


------------------------------------------------------------------------------
                       ORCA ELECTRIC PROPERTIES CALCULATION
------------------------------------------------------------------------------

Dipole Moment Calculation                       ... on
Quadrupole Moment Calculation                   ... off
Polarizability Calculation                      ... off
GBWName                                         ... 36_FeS.gbw
Electron density file                           ... 36_FeS.scfp
The origin for moment calculation is the CENTER OF MASS  = ( 0.000000,  0.000000  1.375269)

-------------
DIPOLE MOMENT
-------------
                                X             Y             Z
Electronic contribution:      0.00000      -0.00000      -5.13067
Nuclear contribution   :      0.00000       0.00000       2.59672
                        -----------------------------------------
Total Dipole Moment    :      0.00000      -0.00000      -2.53394
                        -----------------------------------------
Magnitude (a.u.)       :      2.53394
Magnitude (Debye)      :      6.44078



--------------------
Rotational spectrum 
--------------------
 
Rotational constants in cm-1:     0.000000     0.204456     0.204456 
Rotational constants in MHz :     0.000000  6129.444038  6129.444038 

 Dipole components along the rotational axes: 
x,y,z [a.u.] :    -2.533945    -0.000003     0.000004 
x,y,z [Debye]:    -6.440775    -0.000008     0.000010 

 

Timings for individual modules:

Sum of individual times         ...      509.643 sec (=   8.494 min)
GTO integral calculation        ...        3.292 sec (=   0.055 min)   0.6 %
SCF iterations                  ...      506.351 sec (=   8.439 min)  99.4 %
                             ****ORCA TERMINATED NORMALLY****
TOTAL RUN TIME: 0 days 0 hours 8 minutes 30 seconds 253 msec
