
                                 *****************
                                 * O   R   C   A *
                                 *****************

           --- An Ab Initio, DFT and Semiempirical electronic structure package ---

                  #######################################################
                  #                        -***-                        #
                  #          Department of theory and spectroscopy      #
                  #               Directorship: Frank Neese             #
                  #        Max Planck Institute fuer Kohlenforschung    #
                  #                Kaiser Wilhelm Platz 1               #
                  #                 D-45470 Muelheim/Ruhr               #
                  #                      Germany                        #
                  #                                                     #
                  #                  All rights reserved                #
                  #                        -***-                        #
                  #######################################################


                         Program Version 4.2.0 -  RELEASE  -


 With contributions from (in alphabetic order):
   Daniel Aravena         : Magnetic Suceptibility
   Michael Atanasov       : Ab Initio Ligand Field Theory (pilot matlab implementation)
   Alexander A. Auer      : GIAO ZORA, VPT2
   Ute Becker             : Parallelization
   Giovanni Bistoni       : ED, misc. LED, open-shell LED, HFLED
   Martin Brehm           : Molecular dynamics
   Dmytro Bykov           : SCF Hessian
   Vijay G. Chilkuri      : MRCI spin determinant printing, contributions to CSF-ICE
   Dipayan Datta          : RHF DLPNO-CCSD density
   Achintya Kumar Dutta   : EOM-CC, STEOM-CC
   Dmitry Ganyushin       : Spin-Orbit,Spin-Spin,Magnetic field MRCI
   Miquel Garcia          : C-PCM Hessian, Gaussian charge scheme
   Yang Guo               : DLPNO-NEVPT2, CIM, IAO-localization
   Andreas Hansen         : Spin unrestricted coupled pair/coupled cluster methods
   Benjamin Helmich-Paris : CASSCF linear response (MC-RPA)
   Lee Huntington         : MR-EOM, pCC
   Robert Izsak           : Overlap fitted RIJCOSX, COSX-SCS-MP3, EOM
   Christian Kollmar      : KDIIS, OOCD, Brueckner-CCSD(T), CCSD density
   Simone Kossmann        : Meta GGA functionals, TD-DFT gradient, OOMP2, MP2 Hessian
   Martin Krupicka        : AUTO-CI
   Lucas Lang             : DCDCAS
   Dagmar Lenk            : GEPOL surface, SMD
   Dimitrios Liakos       : Extrapolation schemes; Compound Job, initial MDCI parallelization
   Dimitrios Manganas     : Further ROCIS development; embedding schemes
   Dimitrios Pantazis     : SARC Basis sets
   Taras Petrenko         : DFT Hessian,TD-DFT gradient, ASA, ECA, R-Raman, ABS, FL, XAS/XES, NRVS
   Peter Pinski           : DLPNO-MP2, DLPNO-MP2 Gradient
   Christoph Reimann      : Effective Core Potentials
   Marius Retegan         : Local ZFS, SOC
   Christoph Riplinger    : Optimizer, TS searches, QM/MM, DLPNO-CCSD(T), (RO)-DLPNO pert. Triples
   Tobias Risthaus        : Range-separated hybrids, TD-DFT gradient, RPA, STAB
   Michael Roemelt        : Original ROCIS implementation
   Masaaki Saitow         : Open-shell DLPNO-CCSD energy and density
   Barbara Sandhoefer     : DKH picture change effects
   Avijit Sen             : IP-ROCIS
   Kantharuban Sivalingam : CASSCF convergence, NEVPT2, FIC-MRCI
   Bernardo de Souza      : ESD, SOC TD-DFT
   Georgi Stoychev        : AutoAux, RI-MP2 NMR
   Willem Van den Heuvel  : Paramagnetic NMR
   Boris Wezisla          : Elementary symmetry handling
   Frank Wennmohs         : Technical directorship


 We gratefully acknowledge several colleagues who have allowed us to
 interface, adapt or use parts of their codes:
   Stefan Grimme, W. Hujo, H. Kruse,             : VdW corrections, initial TS optimization,
                  C. Bannwarth                     DFT functionals, gCP, sTDA/sTD-DF
   Ed Valeev, F. Pavosevic, A. Kumar             : LibInt (2-el integral package), F12 methods
   Garnet Chan, S. Sharma, J. Yang, R. Olivares  : DMRG
   Ulf Ekstrom                                   : XCFun DFT Library
   Mihaly Kallay                                 : mrcc  (arbitrary order and MRCC methods)
   Andreas Klamt, Michael Diedenhofen            : otool_cosmo (COSMO solvation model)
   Jiri Pittner, Ondrej Demel                    : Mk-CCSD
   Frank Weinhold                                : gennbo (NPA and NBO analysis)
   Christopher J. Cramer and Donald G. Truhlar   : smd solvation model
   Lars Goerigk                                  : TD-DFT with DH, B97 family of functionals
   V. Asgeirsson, H. Jonsson                     : NEB implementation
   FAccTs GmbH                                   : IRC, NEB, NEB-TS, Multilevel, MM, QM/MM, CI optimization
   S Lehtola, MJT Oliveira, MAL Marques          : LibXC Library


 Your calculation uses the libint2 library for the computation of 2-el integrals
 For citations please refer to: http://libint.valeyev.net

 Your ORCA version has been built with support for libXC version: 4.2.3
 For citations please refer to: https://tddft.org/programs/libxc/

 This ORCA versions uses:
   CBLAS   interface :  Fast vector & matrix operations
   LAPACKE interface :  Fast linear algebra routines
   SCALAPACK package :  Parallel linear algebra routines


Your calculation utilizes the DFT-NL dispersion correction.
Cite in your paper:
Vydrov, O. A.; Van Voorhis, T. J. Chem. Phys. 2010, 133, 244103
Hujo, W.; Grimme, S. J. Chem. Theory Comput. 2011, 7, 3866 
   

----- Orbital basis set information -----
Your calculation utilizes the basis: aug-cc-pVTZ 
    H, B-Ne : Obtained from the ccRepo (grant-hill.group.shef.ac.uk/ccrepo) Feb. 2017
              R. A. Kendall, T. H. Dunning, Jr., R. J. Harrison, J. Chem. Phys. 96, 6796 (1992)
         He : Obtained from the ccRepo (grant-hill.group.shef.ac.uk/ccrepo) Feb. 2017
              D. E. Woon, T. H. Dunning, Jr., J. Chem. Phys. 100, 2975 (1994)
  Li-Be, Na : Obtained from the ccRepo (grant-hill.group.shef.ac.uk/ccrepo) Feb. 2017
              B. P. Prascher, D. E. Woon, K. A. Peterson, T. H. Dunning, Jr., A. K. Wilson, Theor. Chem. Acc. 128, 69 (2011)
         Mg : Obtained from the Peterson Research Group Website (tyr0.chem.wsu.edu/~kipeters) Feb. 2017
              B. P. Prascher, D. E. Woon, K. A. Peterson, T. H. Dunning, Jr., A. K. Wilson, Theor. Chem. Acc. 128, 69 (2011)
      Al-Ar : Obtained from the ccRepo (grant-hill.group.shef.ac.uk/ccrepo) Feb. 2017
              D. E. Woon, T. H. Dunning, Jr., J. Chem. Phys. 98, 1358 (1993)
      Sc-Zn : Obtained from the ccRepo (grant-hill.group.shef.ac.uk/ccrepo) Feb. 2017
              N. B. Balabanov, K. A. Peterson, J. Chem. Phys. 123, 064107 (2005)
              N. B. Balabanov, K. A. Peterson, J. Chem. Phys. 125, 074110 (2006)
      Ga-Kr : Obtained from the ccRepo (grant-hill.group.shef.ac.uk/ccrepo) Feb. 2017
              A. K. Wilson, D. E. Woon, K. A. Peterson, T. H. Dunning, Jr., J. Chem. Phys. 110, 7667 (1999)
     Ag, Au : Obtained from the Peterson Research Group Website (tyr0.chem.wsu.edu/~kipeters) Feb. 2017
              K. A. Peterson, C. Puzzarini, Theor. Chem. Acc. 114, 283 (2005)

----- AuxJK basis set information -----
Your calculation utilizes the auxiliary basis: def2/JK
   H-Ba, Hf-Rn: F. Weigend, J. Comput. Chem. 29, 167 (2008).

================================================================================
                                        WARNINGS
                       Please study these warnings very carefully!
================================================================================


WARNING: your system is open-shell and RHF/RKS was chosen
  ===> : WILL SWITCH to UHF/UKS


INFO   : the flag for use of LIBINT has been found!

================================================================================
                                       INPUT FILE
================================================================================
NAME = 37_CoH.in
|  1> #
|  2> # 37_CoH wb97m-v/aug-cc-pvtz
|  3> #
|  4> ! wb97m-v aug-cc-pvtz def2/jk grid4 nofinalgrid
|  5> 
|  6> *xyz 0 3
|  7>   Co  0.00000000000000      0.00000000000000      0.23964953556340
|  8>   H   0.00000000000000      0.00000000000000      1.76035046443660
|  9> *
| 10> 
| 11> %pal
| 12> nprocs 24
| 13> end
| 14> 
| 15> 
| 16>                          ****END OF INPUT****
================================================================================

                       ****************************
                       * Single Point Calculation *
                       ****************************

---------------------------------
CARTESIAN COORDINATES (ANGSTROEM)
---------------------------------
  Co     0.000000    0.000000    0.239650
  H      0.000000    0.000000    1.760350

----------------------------
CARTESIAN COORDINATES (A.U.)
----------------------------
  NO LB      ZA    FRAG     MASS         X           Y           Z
   0 Co   27.0000    0    58.930    0.000000    0.000000    0.452872
   1 H     1.0000    0     1.008    0.000000    0.000000    3.326580

--------------------------------
INTERNAL COORDINATES (ANGSTROEM)
--------------------------------
 Co     0   0   0     0.000000000000     0.00000000     0.00000000
 H      1   0   0     1.520700928873     0.00000000     0.00000000

---------------------------
INTERNAL COORDINATES (A.U.)
---------------------------
 Co     0   0   0     0.000000000000     0.00000000     0.00000000
 H      1   0   0     2.873708287170     0.00000000     0.00000000

---------------------
BASIS SET INFORMATION
---------------------
There are 2 groups of distinct atoms

 Group   1 Type Co  : 116s77p23d3f2g contracted to 8s7p5d3f2g pattern {19191919191911/151515151511/77711/111/11}
 Group   2 Type H   : 6s3p2d contracted to 4s3p2d pattern {3111/111/11}

Atom   0Co   basis set group =>   1
Atom   1H    basis set group =>   2
----------------------------------
AUXILIARY/JK BASIS SET INFORMATION
----------------------------------
There are 2 groups of distinct atoms

 Group   1 Type Co  : 19s14p12d10f7g3h1i contracted to 16s13p11d9f5g3h1i pattern {4111111111111111/2111111111111/21111111111/211111111/31111/111/1}
 Group   2 Type H   : 4s2p2d contracted to 2s2p2d pattern {31/11/11}

Atom   0Co   basis set group =>   1
Atom   1H    basis set group =>   2


           ************************************************************
           *        Program running with 24 parallel MPI-processes    *
           *              working on a common directory               *
           ************************************************************
------------------------------------------------------------------------------
                           ORCA GTO INTEGRAL CALCULATION
------------------------------------------------------------------------------

                         BASIS SET STATISTICS AND STARTUP INFO

 # of primitive gaussian shells          ...  232
 # of primitive gaussian functions       ...  526
 # of contracted shells                  ...   34
 # of contracted basis functions         ...  116
 Highest angular momentum                ...    4
 Maximum contraction depth               ...   19
 Integral package used                   ... LIBINT
 Integral threshhold            Thresh   ...  1.000e-10
 Primitive cut-off              TCut     ...  1.000e-11


------------------------------ INTEGRAL EVALUATION ----------------------------


 * One electron integrals 
 Pre-screening matrix                    ... done
 Shell pair data                         ... done (   0.001 sec)



           ************************************************************
           *        Program running with 24 parallel MPI-processes    *
           *              working on a common directory               *
           ************************************************************
-------------------------------------------------------------------------------
                                 ORCA SCF
-------------------------------------------------------------------------------

------------
SCF SETTINGS
------------
Hamiltonian:
 Density Functional     Method          .... DFT(GTOs)
 Exchange Functional    Exchange        .... WB97M-V
 Correlation Functional Correlation     .... WB97M-V
 Gradients option       PostSCFGGA      .... off
 Hybrid DFT is turned on
   Fraction HF Exchange ScalHFX         ....  0.150000
   Scaling of DF-GGA-X  ScalDFX         ....  0.000000
   Scaling of DF-GGA-C  ScalDFC         ....  1.000000
   Scaling of DF-LDA-C  ScalLDAC        ....  1.000000
   Perturbative correction              ....  0.000000
   Density functional embedding theory  .... OFF
 Long-range corrected/Screened/Range-Separated Hybrid DFT is turned on
   Amount of maximum screened exact exchange              ....  0.850000
   Range separation parameter mu (erf(mu*r12)/r12)        ....  0.300000
   NL short-range parameter             ....  6.000000
   NL long-range parameter              ....  0.010000


General Settings:
 Integral files         IntName         .... 37_CoH
 Hartree-Fock type      HFTyp           .... UHF
 Total Charge           Charge          ....    0
 Multiplicity           Mult            ....    3
 Number of Electrons    NEL             ....   28
 Basis Dimension        Dim             ....  116
 Nuclear Repulsion      ENuc            ....      9.3955256769 Eh

Convergence Acceleration:
 DIIS                   CNVDIIS         .... on
   Start iteration      DIISMaxIt       ....    12
   Startup error        DIISStart       ....  0.200000
   # of expansion vecs  DIISMaxEq       ....     5
   Bias factor          DIISBfac        ....   1.050
   Max. coefficient     DIISMaxC        ....  10.000
 Newton-Raphson         CNVNR           .... off
 SOSCF                  CNVSOSCF        .... off
 Level Shifting         CNVShift        .... on
   Level shift para.    LevelShift      ....    0.2500
   Turn off err/grad.   ShiftErr        ....    0.0010
 Zerner damping         CNVZerner       .... off
 Static damping         CNVDamp         .... on
   Fraction old density DampFac         ....    0.7000
   Max. Damping (<1)    DampMax         ....    0.9800
   Min. Damping (>=0)   DampMin         ....    0.0000
   Turn off err/grad.   DampErr         ....    0.1000
 Fernandez-Rico         CNVRico         .... off

SCF Procedure:
 Maximum # iterations   MaxIter         ....   125
 SCF integral mode      SCFMode         .... Direct
   Integral package                     .... LIBINT
 Reset frequency        DirectResetFreq ....    20
 Integral Threshold     Thresh          ....  1.000e-10 Eh
 Primitive CutOff       TCut            ....  1.000e-11 Eh

Convergence Tolerance:
 Convergence Check Mode ConvCheckMode   .... Total+1el-Energy
 Convergence forced     ConvForced      .... 0
 Energy Change          TolE            ....  1.000e-06 Eh
 1-El. energy change                    ....  1.000e-03 Eh
 DIIS Error             TolErr          ....  1.000e-06


Diagonalization of the overlap matrix:
Smallest eigenvalue                        ... 6.306e-05
Time for diagonalization                   ...    0.003 sec
Threshold for overlap eigenvalues          ... 1.000e-08
Number of eigenvalues below threshold      ... 0
Time for construction of square roots      ...    0.002 sec
Total time needed                          ...    0.005 sec

-------------------
DFT GRID GENERATION
-------------------

General Integration Accuracy     IntAcc      ...  4.670
Radial Grid Type                 RadialGrid  ... Gauss-Chebyshev
Angular Grid (max. acc.)         AngularGrid ... Lebedev-302
Angular grid pruning method      GridPruning ... 3 (G Style)
Weight generation scheme         WeightScheme... Becke
Basis function cutoff            BFCut       ...    1.0000e-10
Integration weight cutoff        WCut        ...    1.0000e-14
Grids for H and He will be reduced by one unit

# of grid points (after initial pruning)     ...  13034 (   0.0 sec)
# of grid points (after weights+screening)   ...  12998 (   0.0 sec)
nearest neighbour list constructed           ...    0.0 sec
Grid point re-assignment to atoms done       ...    0.0 sec
Grid point division into batches done        ...    0.1 sec
Reduced shell lists constructed in    0.1 sec

Total number of grid points                  ...    12998
Total number of batches                      ...      205
Average number of points per batch           ...       63
Average number of grid points per atom       ...     6499
Average number of shells per batch           ...    14.60 (42.94%)
Average number of basis functions per batch  ...    32.60 (28.10%)
Average number of large shells per batch     ...     7.00 (47.95%)
Average number of large basis fcns per batch ...    15.80 (48.47%)
Maximum spatial batch extension              ...  31.41, 28.57, 18.66 au
Average spatial batch extension              ...   1.02,  0.93,  0.70 au

Time for grid setup =    0.122 sec

------------------------------
INITIAL GUESS: MODEL POTENTIAL
------------------------------
Loading Hartree-Fock densities                     ... done
Calculating cut-offs                               ... done
Setting up the integral package                    ... done
Initializing the effective Hamiltonian             ... done
Starting the Coulomb interaction                   ... done (   0.0 sec)
Reading the grid                                   ... done
Mapping shells                                     ... done
Starting the XC term evaluation                    ... done (   0.0 sec)
  promolecular density results
     # of electrons  =     27.999537409
     EX              =    -58.009962809
     EC              =     -1.229133509
     EX+EC           =    -59.239096318
Transforming the Hamiltonian                       ... done (   0.0 sec)
Diagonalizing the Hamiltonian                      ... done (   0.0 sec)
Back transforming the eigenvectors                 ... done (   0.0 sec)
Now organizing SCF variables                       ... done
                      ------------------
                      INITIAL GUESS DONE (   0.2 sec)
                      ------------------
--------------
SCF ITERATIONS
--------------
ITER       Energy         Delta-E        Max-DP      RMS-DP      [F,P]     Damp
               ***  Starting incremental Fock matrix formation  ***
  0  -1383.2599702065   0.000000000000 0.05571342  0.00139832  0.3285633 0.7000
  1  -1383.3057653262  -0.045795119649 0.02658515  0.00059379  0.0737330 0.7000
                               ***Turning on DIIS***
  2  -1383.3222069464  -0.016441620231 0.05579790  0.00129742  0.0535952 0.0000
  3  -1383.3699354206  -0.047728474210 0.02493942  0.00057252  0.0223911 0.0000
  4  -1383.3730387131  -0.003103292491 0.01862823  0.00022737  0.0229647 0.0000
  5  -1383.3745523238  -0.001513610682 0.02237960  0.00023990  0.0147399 0.0000
  6  -1383.3761049557  -0.001552631931 0.01860250  0.00020663  0.0104715 0.0000
  7  -1383.3768069538  -0.000701998103 0.00808841  0.00009961  0.0044352 0.0000
  8  -1383.3769396649  -0.000132711123 0.00310102  0.00004161  0.0017982 0.0000
  9  -1383.3769650828  -0.000025417894 0.00153422  0.00002571  0.0006777 0.0000
 10  -1383.3769829141  -0.000017831317 0.00038158  0.00000672  0.0002181 0.0000
 11  -1383.3769883460  -0.000005431876 0.00021730  0.00000419  0.0002252 0.0000
 12  -1383.3769912695  -0.000002923461 0.00024264  0.00000353  0.0001290 0.0000
 13  -1383.3769935386  -0.000002269160 0.00019738  0.00000244  0.0000493 0.0000
 14  -1383.3769950087  -0.000001470105 0.00020260  0.00000229  0.0000388 0.0000
 15  -1383.3769963182  -0.000001309493 0.00010422  0.00000128  0.0000200 0.0000
                 **** Energy Check signals convergence ****

               *****************************************************
               *                     SUCCESS                       *
               *           SCF CONVERGED AFTER  16 CYCLES          *
               *****************************************************


Setting up the DFT-NL grid :

General Integration Accuracy     IntAcc      ...  4.340
Radial Grid Type                 RadialGrid  ... Gauss-Chebyshev
Angular Grid (max. acc.)         AngularGrid ... Lebedev-110
Angular grid pruning method      GridPruning ... 3 (G Style)
Weight generation scheme         WeightScheme... Becke
Basis function cutoff            BFCut       ...    1.0000e-10
Integration weight cutoff        WCut        ...    1.0000e-14
Grids for H and He will be reduced by one unit

# of grid points (after initial pruning)     ...   3706 (   0.0 sec)
# of grid points (after weights+screening)   ...   3680 (   0.0 sec)
nearest neighbour list constructed           ...    0.0 sec
Grid point re-assignment to atoms done       ...    0.0 sec
Grid point division into batches done        ...    0.0 sec
Reduced shell lists constructed in    0.0 sec

Total number of grid points                  ...     3680
Total number of batches                      ...       59
Average number of points per batch           ...       62
Average number of grid points per atom       ...     1840
Average number of shells per batch           ...    20.25 (59.56%)
Average number of basis functions per batch  ...    56.25 (48.49%)
Average number of large shells per batch     ...    14.75 (72.84%)
Average number of large basis fcns per batch ...    40.75 (72.44%)
Maximum spatial batch extension              ...  37.20, 28.73, 20.01 au
Average spatial batch extension              ...   1.30,  1.32,  0.87 au

Final grid set up in    0.0 sec

-------------------------------------------------------------------------------
                         DFT-NL dispersion correction                          
-------------------------------------------------------------------------------

SC Energy -1383.376997051 
NL    Energy 0.118780227 
SC+NL Energy -1383.258216824 
NL done in    0.0 sec
-------------------------------------------------------------------------------

----------------
TOTAL SCF ENERGY
----------------

Total Energy       :        -1383.25821682 Eh          -37640.36968 eV

Components:
Nuclear Repulsion  :            9.39552568 Eh             255.66525 eV
Electronic Energy  :        -1392.65374250 Eh          -37896.03493 eV
One Electron Energy:        -1937.15016273 Eh          -52712.53578 eV
Two Electron Energy:          544.49642023 Eh           14816.50085 eV

Virial components:
Potential Energy   :        -2764.91994048 Eh          -75237.29657 eV
Kinetic Energy     :         1381.66172366 Eh           37596.92689 eV
Virial Ratio       :            2.00115549


DFT components:
N(Alpha)           :       15.000007552057 electrons
N(Beta)            :       13.000007757439 electrons
N(Total)           :       28.000015309497 electrons
E(X)               :      -45.750312860848 Eh       
E(C)               :       -1.435959989151 Eh       
NL Energy, E(C,NL) :        0.118780227171 Eh       
E(XC)              :      -47.067492622827 Eh       
DFET-embed. en.    :        0.000000000000 Eh       

---------------
SCF CONVERGENCE
---------------

  Last Energy change         ...   -7.3269e-07  Tolerance :   1.0000e-06
  Last MAX-Density change    ...    1.6399e-05  Tolerance :   1.0000e-05
  Last RMS-Density change    ...    2.2552e-07  Tolerance :   1.0000e-06
  Last DIIS Error            ...    7.0512e-06  Tolerance :   1.0000e-06

             **** THE GBW FILE WAS UPDATED (37_CoH.gbw) ****
             **** DENSITY FILE WAS UPDATED (37_CoH.scfp) ****
             **** ENERGY FILE WAS UPDATED (37_CoH.en.tmp) ****
----------------------
UHF SPIN CONTAMINATION
----------------------

Warning: in a DFT calculation there is little theoretical justification to 
         calculate <S**2> as in Hartree-Fock theory. We will do it anyways
         but you should keep in mind that the values have only limited relevance

Expectation value of <S**2>     :     2.010582
Ideal value S*(S+1) for S=1.0   :     2.000000
Deviation                       :     0.010582

             **** THE GBW FILE WAS UPDATED (37_CoH.gbw) ****
             **** DENSITY FILE WAS UPDATED (37_CoH.scfp) ****
----------------
ORBITAL ENERGIES
----------------
                 SPIN UP ORBITALS
  NO   OCC          E(Eh)            E(eV) 
   0   1.0000    -277.966159     -7563.8437 
   1   1.0000     -33.019697      -898.5116 
   2   1.0000     -28.565205      -777.2988 
   3   1.0000     -28.565205      -777.2988 
   4   1.0000     -28.563790      -777.2602 
   5   1.0000      -3.852503      -104.8319 
   6   1.0000      -2.513825       -68.4046 
   7   1.0000      -2.513695       -68.4011 
   8   1.0000      -2.513695       -68.4011 
   9   1.0000      -0.411362       -11.1937 
  10   1.0000      -0.377085       -10.2610 
  11   1.0000      -0.351761        -9.5719 
  12   1.0000      -0.351761        -9.5719 
  13   1.0000      -0.349328        -9.5057 
  14   1.0000      -0.313077        -8.5192 
  15   0.0000      -0.019990        -0.5440 
  16   0.0000       0.010922         0.2972 
  17   0.0000       0.010922         0.2972 
  18   0.0000       0.019867         0.5406 
  19   0.0000       0.034425         0.9368 
  20   0.0000       0.073688         2.0051 
  21   0.0000       0.073688         2.0051 
  22   0.0000       0.077996         2.1224 
  23   0.0000       0.091337         2.4854 
  24   0.0000       0.091337         2.4854 
  25   0.0000       0.091514         2.4902 
  26   0.0000       0.091791         2.4978 
  27   0.0000       0.098322         2.6755 
  28   0.0000       0.167891         4.5685 
  29   0.0000       0.221730         6.0336 
  30   0.0000       0.253883         6.9085 
  31   0.0000       0.253883         6.9085 
  32   0.0000       0.293462         7.9855 
  33   0.0000       0.329280         8.9602 
  34   0.0000       0.329280         8.9602 
  35   0.0000       0.385574        10.4920 
  36   0.0000       0.385704        10.4955 
  37   0.0000       0.385847        10.4994 
  38   0.0000       0.394299        10.7294 
  39   0.0000       0.394299        10.7294 
  40   0.0000       0.618860        16.8400 
  41   0.0000       0.646685        17.5972 
  42   0.0000       0.774387        21.0721 
  43   0.0000       0.815293        22.1853 
  44   0.0000       0.815567        22.1927 
  45   0.0000       0.904321        24.6078 
  46   0.0000       0.904321        24.6078 
  47   0.0000       0.956156        26.0183 
  48   0.0000       0.990427        26.9509 
  49   0.0000       0.990427        26.9509 
  50   0.0000       1.069958        29.1150 
  51   0.0000       1.069958        29.1150 
  52   0.0000       1.104594        30.0575 
  53   0.0000       1.104594        30.0575 
  54   0.0000       1.180887        32.1336 
  55   0.0000       1.249705        34.0062 
  56   0.0000       1.250470        34.0270 
  57   0.0000       1.294737        35.2316 
  58   0.0000       1.294737        35.2316 
  59   0.0000       1.387643        37.7597 
  60   0.0000       1.396293        37.9951 
  61   0.0000       1.494412        40.6650 
  62   0.0000       1.540192        41.9107 
  63   0.0000       1.866002        50.7765 
  64   0.0000       1.866002        50.7765 
  65   0.0000       2.298008        62.5320 
  66   0.0000       3.044149        82.8355 
  67   0.0000       3.221102        87.6507 
  68   0.0000       3.221102        87.6507 
  69   0.0000       3.254682        88.5644 
  70   0.0000       3.280846        89.2764 
  71   0.0000       3.280846        89.2764 
  72   0.0000       3.329609        90.6033 
  73   0.0000       3.342988        90.9673 
  74   0.0000       3.369440        91.6871 
  75   0.0000       3.532835        96.1333 
  76   0.0000       3.532835        96.1333 
  77   0.0000       3.664143        99.7064 
  78   0.0000       3.665769        99.7507 
  79   0.0000       3.769062       102.5614 
  80   0.0000       3.769062       102.5614 
  81   0.0000       3.827527       104.1523 
  82   0.0000       3.986378       108.4749 
  83   0.0000       4.069114       110.7262 
  84   0.0000       4.069114       110.7262 
  85   0.0000       4.155338       113.0725 
  86   0.0000       4.156477       113.1035 
  87   0.0000       4.169485       113.4575 
  88   0.0000       4.169485       113.4575 
  89   0.0000       4.283999       116.5735 
  90   0.0000       4.291848       116.7871 
  91   0.0000       4.909767       133.6016 
  92   0.0000       4.909767       133.6016 
  93   0.0000       4.967937       135.1844 
  94   0.0000       5.284878       143.8088 
  95   0.0000       5.313467       144.5868 
  96   0.0000       5.494041       149.5005 
  97   0.0000       5.630844       153.2230 
  98   0.0000       5.630844       153.2230 
  99   0.0000       6.837921       186.0693 
 100   0.0000      10.622070       289.0412 
 101   0.0000      10.622070       289.0412 
 102   0.0000      10.658146       290.0229 
 103   0.0000      10.682960       290.6981 
 104   0.0000      10.710428       291.4456 
 105   0.0000      10.710428       291.4456 
 106   0.0000      10.912493       296.9440 
 107   0.0000      11.688671       318.0649 
 108   0.0000      11.688968       318.0730 
 109   0.0000      11.710104       318.6481 
 110   0.0000      11.710104       318.6481 
 111   0.0000      11.721819       318.9669 
 112   0.0000      11.741768       319.5097 
 113   0.0000      11.919689       324.3512 
 114   0.0000      11.919689       324.3512 
 115   0.0000      12.220192       332.5283 

                 SPIN DOWN ORBITALS
  NO   OCC          E(Eh)            E(eV) 
   0   1.0000    -277.965100     -7563.8149 
   1   1.0000     -32.974104      -897.2710 
   2   1.0000     -28.530966      -776.3671 
   3   1.0000     -28.528060      -776.2880 
   4   1.0000     -28.528060      -776.2880 
   5   1.0000      -3.762777      -102.3904 
   6   1.0000      -2.417256       -65.7769 
   7   1.0000      -2.414311       -65.6967 
   8   1.0000      -2.414311       -65.6967 
   9   1.0000      -0.368863       -10.0373 
  10   1.0000      -0.307027        -8.3546 
  11   1.0000      -0.307027        -8.3546 
  12   1.0000      -0.306035        -8.3276 
  13   0.0000      -0.037478        -1.0198 
  14   0.0000      -0.002848        -0.0775 
  15   0.0000      -0.002848        -0.0775 
  16   0.0000       0.011809         0.3213 
  17   0.0000       0.022266         0.6059 
  18   0.0000       0.053991         1.4692 
  19   0.0000       0.058844         1.6012 
  20   0.0000       0.062806         1.7090 
  21   0.0000       0.062806         1.7090 
  22   0.0000       0.073746         2.0067 
  23   0.0000       0.074114         2.0167 
  24   0.0000       0.081923         2.2292 
  25   0.0000       0.081923         2.2293 
  26   0.0000       0.113559         3.0901 
  27   0.0000       0.117850         3.2069 
  28   0.0000       0.165247         4.4966 
  29   0.0000       0.217139         5.9087 
  30   0.0000       0.243743         6.6326 
  31   0.0000       0.243743         6.6326 
  32   0.0000       0.297450         8.0940 
  33   0.0000       0.323017         8.7897 
  34   0.0000       0.323017         8.7897 
  35   0.0000       0.374778        10.1982 
  36   0.0000       0.378977        10.3125 
  37   0.0000       0.391679        10.6581 
  38   0.0000       0.391679        10.6581 
  39   0.0000       0.393270        10.7014 
  40   0.0000       0.622607        16.9420 
  41   0.0000       0.640793        17.4369 
  42   0.0000       0.777567        21.1587 
  43   0.0000       0.813154        22.1271 
  44   0.0000       0.813778        22.1440 
  45   0.0000       0.904513        24.6130 
  46   0.0000       0.904513        24.6130 
  47   0.0000       0.952903        25.9298 
  48   0.0000       0.985226        26.8094 
  49   0.0000       0.985226        26.8094 
  50   0.0000       1.072784        29.1919 
  51   0.0000       1.072784        29.1919 
  52   0.0000       1.093638        29.7594 
  53   0.0000       1.093638        29.7594 
  54   0.0000       1.192903        32.4606 
  55   0.0000       1.249838        34.0098 
  56   0.0000       1.252950        34.0945 
  57   0.0000       1.295131        35.2423 
  58   0.0000       1.295131        35.2423 
  59   0.0000       1.412314        38.4310 
  60   0.0000       1.423225        38.7279 
  61   0.0000       1.502031        40.8723 
  62   0.0000       1.550300        42.1858 
  63   0.0000       1.872011        50.9400 
  64   0.0000       1.872011        50.9400 
  65   0.0000       2.300475        62.5991 
  66   0.0000       3.037273        82.6484 
  67   0.0000       3.245256        88.3079 
  68   0.0000       3.245256        88.3079 
  69   0.0000       3.294088        89.6367 
  70   0.0000       3.340333        90.8951 
  71   0.0000       3.340333        90.8951 
  72   0.0000       3.350675        91.1765 
  73   0.0000       3.368418        91.6593 
  74   0.0000       3.424466        93.1844 
  75   0.0000       3.588451        97.6467 
  76   0.0000       3.588451        97.6467 
  77   0.0000       3.649164        99.2988 
  78   0.0000       3.649810        99.3164 
  79   0.0000       3.781276       102.8938 
  80   0.0000       3.781276       102.8938 
  81   0.0000       3.866853       105.2224 
  82   0.0000       4.007787       109.0574 
  83   0.0000       4.045010       110.0703 
  84   0.0000       4.045010       110.0703 
  85   0.0000       4.175542       113.6223 
  86   0.0000       4.185533       113.8941 
  87   0.0000       4.185533       113.8941 
  88   0.0000       4.193088       114.0997 
  89   0.0000       4.290219       116.7428 
  90   0.0000       4.293859       116.8418 
  91   0.0000       4.917843       133.8213 
  92   0.0000       4.917843       133.8213 
  93   0.0000       4.956062       134.8613 
  94   0.0000       5.355151       145.7211 
  95   0.0000       5.413966       147.3215 
  96   0.0000       5.545795       150.9088 
  97   0.0000       5.671434       154.3276 
  98   0.0000       5.671434       154.3276 
  99   0.0000       6.895526       187.6368 
 100   0.0000      10.715049       291.5713 
 101   0.0000      10.727301       291.9047 
 102   0.0000      10.727301       291.9047 
 103   0.0000      10.745048       292.3876 
 104   0.0000      10.808264       294.1078 
 105   0.0000      10.808264       294.1078 
 106   0.0000      11.030436       300.1534 
 107   0.0000      11.757695       319.9431 
 108   0.0000      11.757695       319.9431 
 109   0.0000      11.766927       320.1944 
 110   0.0000      11.773746       320.3799 
 111   0.0000      11.781680       320.5958 
 112   0.0000      11.794268       320.9384 
 113   0.0000      11.989585       326.2532 
 114   0.0000      11.989585       326.2532 
 115   0.0000      12.307692       334.9093 

                    ********************************
                    * MULLIKEN POPULATION ANALYSIS *
                    ********************************

--------------------------------------------
MULLIKEN ATOMIC CHARGES AND SPIN POPULATIONS
--------------------------------------------
   0 Co:    0.068915    2.011133
   1 H :   -0.068915   -0.011133
Sum of atomic charges         :    0.0000000
Sum of atomic spin populations:    2.0000000

-----------------------------------------------------
MULLIKEN REDUCED ORBITAL CHARGES AND SPIN POPULATIONS
-----------------------------------------------------
CHARGE
  0 Cos       :     6.779753  s :     6.779753
      pz      :     4.135300  p :    12.138978
      px      :     4.001839
      py      :     4.001839
      dz2     :     1.018645  d :     8.008833
      dxz     :     1.995122
      dyz     :     1.995122
      dx2y2   :     2.000060
      dxy     :     0.999885
      f0      :     0.002874  f :     0.003350
      f+1     :     0.000089
      f-1     :     0.000089
      f+2     :     0.000165
      f-2     :     0.000066
      f+3     :     0.000034
      f-3     :     0.000034
      g0      :     0.000138  g :     0.000170
      g+1     :     0.000003
      g-1     :     0.000003
      g+2     :     0.000005
      g-2     :     0.000005
      g+3     :     0.000003
      g-3     :     0.000003
      g+4     :     0.000009
      g-4     :     0.000000
  1 H s       :     1.069549  s :     1.069549
      pz      :    -0.007378  p :    -0.002790
      px      :     0.002294
      py      :     0.002294
      dz2     :     0.001109  d :     0.002155
      dxz     :     0.000616
      dyz     :     0.000616
      dx2y2   :    -0.000229
      dxy     :     0.000044

SPIN
  0 Cos       :     0.179229  s :     0.179229
      pz      :    -0.012301  p :    -0.013193
      px      :    -0.000446
      py      :    -0.000446
      dz2     :     0.842826  d :     1.844794
      dxz     :     0.001147
      dyz     :     0.001147
      dx2y2   :    -0.000210
      dxy     :     0.999885
      f0      :     0.000319  f :     0.000285
      f+1     :    -0.000017
      f-1     :    -0.000017
      f+2     :    -0.000016
      f-2     :     0.000066
      f+3     :    -0.000026
      f-3     :    -0.000026
      g0      :     0.000024  g :     0.000019
      g+1     :    -0.000003
      g-1     :    -0.000003
      g+2     :    -0.000002
      g-2     :     0.000005
      g+3     :    -0.000001
      g-3     :    -0.000001
      g+4     :    -0.000000
      g-4     :     0.000000
  1 H s       :    -0.011171  s :    -0.011171
      pz      :     0.000797  p :    -0.000044
      px      :    -0.000420
      py      :    -0.000420
      dz2     :     0.000279  d :     0.000082
      dxz     :    -0.000234
      dyz     :    -0.000234
      dx2y2   :     0.000228
      dxy     :     0.000044


                     *******************************
                     * LOEWDIN POPULATION ANALYSIS *
                     *******************************

-------------------------------------------
LOEWDIN ATOMIC CHARGES AND SPIN POPULATIONS
-------------------------------------------
   0 Co:    0.610338    1.978331
   1 H :   -0.610338    0.021669

----------------------------------------------------
LOEWDIN REDUCED ORBITAL CHARGES AND SPIN POPULATIONS
----------------------------------------------------
CHARGE
  0 Cos       :     6.521555  s :     6.521555
      pz      :     4.101014  p :    12.029748
      px      :     3.964367
      py      :     3.964367
      dz2     :     1.016667  d :     7.818580
      dxz     :     1.909691
      dyz     :     1.909691
      dx2y2   :     1.987727
      dxy     :     0.994805
      f0      :     0.013166  f :     0.018980
      f+1     :     0.002490
      f-1     :     0.002490
      f+2     :     0.000550
      f-2     :     0.000217
      f+3     :     0.000034
      f-3     :     0.000034
      g0      :     0.000561  g :     0.000798
      g+1     :     0.000101
      g-1     :     0.000101
      g+2     :     0.000009
      g-2     :     0.000012
      g+3     :     0.000003
      g-3     :     0.000003
      g+4     :     0.000009
      g-4     :     0.000000
  1 H s       :     1.044849  s :     1.044849
      pz      :     0.173914  p :     0.283678
      px      :     0.054882
      py      :     0.054882
      dz2     :     0.128266  d :     0.281812
      dxz     :     0.068432
      dyz     :     0.068432
      dx2y2   :     0.011715
      dxy     :     0.004966

SPIN
  0 Cos       :     0.182810  s :     0.182810
      pz      :    -0.015290  p :    -0.018660
      px      :    -0.001685
      py      :    -0.001685
      dz2     :     0.808418  d :     1.814876
      dxz     :     0.005391
      dyz     :     0.005391
      dx2y2   :     0.000871
      dxy     :     0.994805
      f0      :    -0.000729  f :    -0.000741
      f+1     :    -0.000062
      f-1     :    -0.000062
      f+2     :    -0.000055
      f-2     :     0.000217
      f+3     :    -0.000026
      f-3     :    -0.000026
      g0      :     0.000010  g :     0.000046
      g+1     :     0.000011
      g-1     :     0.000011
      g+2     :     0.000006
      g-2     :     0.000012
      g+3     :    -0.000001
      g-3     :    -0.000001
      g+4     :    -0.000000
      g-4     :     0.000000
  1 H s       :     0.000399  s :     0.000399
      pz      :     0.020823  p :     0.015041
      px      :    -0.002891
      py      :    -0.002891
      dz2     :     0.003559  d :     0.006230
      dxz     :    -0.000737
      dyz     :    -0.000737
      dx2y2   :    -0.000822
      dxy     :     0.004966


                      *****************************
                      * MAYER POPULATION ANALYSIS *
                      *****************************

  NA   - Mulliken gross atomic population
  ZA   - Total nuclear charge
  QA   - Mulliken gross atomic charge
  VA   - Mayer's total valence
  BVA  - Mayer's bonded valence
  FA   - Mayer's free valence

  ATOM       NA         ZA         QA         VA         BVA        FA
  0 Co    26.9311    27.0000     0.0689     3.0020     1.0461     1.9559
  1 H      1.0689     1.0000    -0.0689     1.0513     1.0461     0.0052

  Mayer bond orders larger than 0.100000
B(  0-Co,  1-H ) :   1.0461 

-------
TIMINGS
-------

Total SCF time: 0 days 0 hours 3 min 20 sec 

Total time                  ....     200.452 sec
Sum of individual times     ....     200.137 sec  ( 99.8%)

Fock matrix formation       ....     199.815 sec  ( 99.7%)
  XC integration            ....       0.428 sec  (  0.2% of F)
    Basis function eval.    ....       0.064 sec  ( 14.9% of XC)
    Density eval.           ....       0.062 sec  ( 14.4% of XC)
    XC-Functional eval.     ....       0.017 sec  (  3.9% of XC)
    XC-Potential eval.      ....       0.165 sec  ( 38.6% of XC)
Diagonalization             ....       0.057 sec  (  0.0%)
Density matrix formation    ....       0.009 sec  (  0.0%)
Population analysis         ....       0.006 sec  (  0.0%)
Initial guess               ....       0.093 sec  (  0.0%)
Orbital Transformation      ....       0.000 sec  (  0.0%)
Orbital Orthonormalization  ....       0.000 sec  (  0.0%)
DIIS solution               ....       0.022 sec  (  0.0%)
Grid generation             ....       0.135 sec  (  0.1%)

-------------------------   --------------------
FINAL SINGLE POINT ENERGY     -1383.258216823757
-------------------------   --------------------


                            ***************************************
                            *     ORCA property calculations      *
                            ***************************************

                                    ---------------------
                                    Active property flags
                                    ---------------------
   (+) Dipole Moment


------------------------------------------------------------------------------
                       ORCA ELECTRIC PROPERTIES CALCULATION
------------------------------------------------------------------------------

Dipole Moment Calculation                       ... on
Quadrupole Moment Calculation                   ... off
Polarizability Calculation                      ... off
GBWName                                         ... 37_CoH.gbw
Electron density file                           ... 37_CoH.scfp
The origin for moment calculation is the CENTER OF MASS  = ( 0.000000,  0.000000  0.501200)

-------------
DIPOLE MOMENT
-------------
                                X             Y             Z
Electronic contribution:      0.00000      -0.00000      -2.79455
Nuclear contribution   :      0.00000       0.00000       1.52052
                        -----------------------------------------
Total Dipole Moment    :      0.00000      -0.00000      -1.27404
                        -----------------------------------------
Magnitude (a.u.)       :      1.27404
Magnitude (Debye)      :      3.23834



--------------------
Rotational spectrum 
--------------------
 
Rotational constants in cm-1:     0.000000     7.355540     7.355540 
Rotational constants in MHz :     0.000000 220513.537195 220513.537195 

 Dipole components along the rotational axes: 
x,y,z [a.u.] :    -1.274036    -0.000000     0.000000 
x,y,z [Debye]:    -3.238342    -0.000000     0.000000 

 

Timings for individual modules:

Sum of individual times         ...      203.868 sec (=   3.398 min)
GTO integral calculation        ...        2.905 sec (=   0.048 min)   1.4 %
SCF iterations                  ...      200.962 sec (=   3.349 min)  98.6 %
                             ****ORCA TERMINATED NORMALLY****
TOTAL RUN TIME: 0 days 0 hours 3 minutes 24 seconds 477 msec
