
                                 *****************
                                 * O   R   C   A *
                                 *****************

           --- An Ab Initio, DFT and Semiempirical electronic structure package ---

                  #######################################################
                  #                        -***-                        #
                  #          Department of theory and spectroscopy      #
                  #               Directorship: Frank Neese             #
                  #        Max Planck Institute fuer Kohlenforschung    #
                  #                Kaiser Wilhelm Platz 1               #
                  #                 D-45470 Muelheim/Ruhr               #
                  #                      Germany                        #
                  #                                                     #
                  #                  All rights reserved                #
                  #                        -***-                        #
                  #######################################################


                         Program Version 4.2.0 -  RELEASE  -


 With contributions from (in alphabetic order):
   Daniel Aravena         : Magnetic Suceptibility
   Michael Atanasov       : Ab Initio Ligand Field Theory (pilot matlab implementation)
   Alexander A. Auer      : GIAO ZORA, VPT2
   Ute Becker             : Parallelization
   Giovanni Bistoni       : ED, misc. LED, open-shell LED, HFLED
   Martin Brehm           : Molecular dynamics
   Dmytro Bykov           : SCF Hessian
   Vijay G. Chilkuri      : MRCI spin determinant printing, contributions to CSF-ICE
   Dipayan Datta          : RHF DLPNO-CCSD density
   Achintya Kumar Dutta   : EOM-CC, STEOM-CC
   Dmitry Ganyushin       : Spin-Orbit,Spin-Spin,Magnetic field MRCI
   Miquel Garcia          : C-PCM Hessian, Gaussian charge scheme
   Yang Guo               : DLPNO-NEVPT2, CIM, IAO-localization
   Andreas Hansen         : Spin unrestricted coupled pair/coupled cluster methods
   Benjamin Helmich-Paris : CASSCF linear response (MC-RPA)
   Lee Huntington         : MR-EOM, pCC
   Robert Izsak           : Overlap fitted RIJCOSX, COSX-SCS-MP3, EOM
   Christian Kollmar      : KDIIS, OOCD, Brueckner-CCSD(T), CCSD density
   Simone Kossmann        : Meta GGA functionals, TD-DFT gradient, OOMP2, MP2 Hessian
   Martin Krupicka        : AUTO-CI
   Lucas Lang             : DCDCAS
   Dagmar Lenk            : GEPOL surface, SMD
   Dimitrios Liakos       : Extrapolation schemes; Compound Job, initial MDCI parallelization
   Dimitrios Manganas     : Further ROCIS development; embedding schemes
   Dimitrios Pantazis     : SARC Basis sets
   Taras Petrenko         : DFT Hessian,TD-DFT gradient, ASA, ECA, R-Raman, ABS, FL, XAS/XES, NRVS
   Peter Pinski           : DLPNO-MP2, DLPNO-MP2 Gradient
   Christoph Reimann      : Effective Core Potentials
   Marius Retegan         : Local ZFS, SOC
   Christoph Riplinger    : Optimizer, TS searches, QM/MM, DLPNO-CCSD(T), (RO)-DLPNO pert. Triples
   Tobias Risthaus        : Range-separated hybrids, TD-DFT gradient, RPA, STAB
   Michael Roemelt        : Original ROCIS implementation
   Masaaki Saitow         : Open-shell DLPNO-CCSD energy and density
   Barbara Sandhoefer     : DKH picture change effects
   Avijit Sen             : IP-ROCIS
   Kantharuban Sivalingam : CASSCF convergence, NEVPT2, FIC-MRCI
   Bernardo de Souza      : ESD, SOC TD-DFT
   Georgi Stoychev        : AutoAux, RI-MP2 NMR
   Willem Van den Heuvel  : Paramagnetic NMR
   Boris Wezisla          : Elementary symmetry handling
   Frank Wennmohs         : Technical directorship


 We gratefully acknowledge several colleagues who have allowed us to
 interface, adapt or use parts of their codes:
   Stefan Grimme, W. Hujo, H. Kruse,             : VdW corrections, initial TS optimization,
                  C. Bannwarth                     DFT functionals, gCP, sTDA/sTD-DF
   Ed Valeev, F. Pavosevic, A. Kumar             : LibInt (2-el integral package), F12 methods
   Garnet Chan, S. Sharma, J. Yang, R. Olivares  : DMRG
   Ulf Ekstrom                                   : XCFun DFT Library
   Mihaly Kallay                                 : mrcc  (arbitrary order and MRCC methods)
   Andreas Klamt, Michael Diedenhofen            : otool_cosmo (COSMO solvation model)
   Jiri Pittner, Ondrej Demel                    : Mk-CCSD
   Frank Weinhold                                : gennbo (NPA and NBO analysis)
   Christopher J. Cramer and Donald G. Truhlar   : smd solvation model
   Lars Goerigk                                  : TD-DFT with DH, B97 family of functionals
   V. Asgeirsson, H. Jonsson                     : NEB implementation
   FAccTs GmbH                                   : IRC, NEB, NEB-TS, Multilevel, MM, QM/MM, CI optimization
   S Lehtola, MJT Oliveira, MAL Marques          : LibXC Library


 Your calculation uses the libint2 library for the computation of 2-el integrals
 For citations please refer to: http://libint.valeyev.net

 Your ORCA version has been built with support for libXC version: 4.2.3
 For citations please refer to: https://tddft.org/programs/libxc/

 This ORCA versions uses:
   CBLAS   interface :  Fast vector & matrix operations
   LAPACKE interface :  Fast linear algebra routines
   SCALAPACK package :  Parallel linear algebra routines


Your calculation utilizes the DFT-NL dispersion correction.
Cite in your paper:
Vydrov, O. A.; Van Voorhis, T. J. Chem. Phys. 2010, 133, 244103
Hujo, W.; Grimme, S. J. Chem. Theory Comput. 2011, 7, 3866 
   

----- Orbital basis set information -----
Your calculation utilizes the basis: aug-cc-pVTZ 
    H, B-Ne : Obtained from the ccRepo (grant-hill.group.shef.ac.uk/ccrepo) Feb. 2017
              R. A. Kendall, T. H. Dunning, Jr., R. J. Harrison, J. Chem. Phys. 96, 6796 (1992)
         He : Obtained from the ccRepo (grant-hill.group.shef.ac.uk/ccrepo) Feb. 2017
              D. E. Woon, T. H. Dunning, Jr., J. Chem. Phys. 100, 2975 (1994)
  Li-Be, Na : Obtained from the ccRepo (grant-hill.group.shef.ac.uk/ccrepo) Feb. 2017
              B. P. Prascher, D. E. Woon, K. A. Peterson, T. H. Dunning, Jr., A. K. Wilson, Theor. Chem. Acc. 128, 69 (2011)
         Mg : Obtained from the Peterson Research Group Website (tyr0.chem.wsu.edu/~kipeters) Feb. 2017
              B. P. Prascher, D. E. Woon, K. A. Peterson, T. H. Dunning, Jr., A. K. Wilson, Theor. Chem. Acc. 128, 69 (2011)
      Al-Ar : Obtained from the ccRepo (grant-hill.group.shef.ac.uk/ccrepo) Feb. 2017
              D. E. Woon, T. H. Dunning, Jr., J. Chem. Phys. 98, 1358 (1993)
      Sc-Zn : Obtained from the ccRepo (grant-hill.group.shef.ac.uk/ccrepo) Feb. 2017
              N. B. Balabanov, K. A. Peterson, J. Chem. Phys. 123, 064107 (2005)
              N. B. Balabanov, K. A. Peterson, J. Chem. Phys. 125, 074110 (2006)
      Ga-Kr : Obtained from the ccRepo (grant-hill.group.shef.ac.uk/ccrepo) Feb. 2017
              A. K. Wilson, D. E. Woon, K. A. Peterson, T. H. Dunning, Jr., J. Chem. Phys. 110, 7667 (1999)
     Ag, Au : Obtained from the Peterson Research Group Website (tyr0.chem.wsu.edu/~kipeters) Feb. 2017
              K. A. Peterson, C. Puzzarini, Theor. Chem. Acc. 114, 283 (2005)

----- AuxJK basis set information -----
Your calculation utilizes the auxiliary basis: def2/JK
   H-Ba, Hf-Rn: F. Weigend, J. Comput. Chem. 29, 167 (2008).

================================================================================
                                        WARNINGS
                       Please study these warnings very carefully!
================================================================================


WARNING: your system is open-shell and RHF/RKS was chosen
  ===> : WILL SWITCH to UHF/UKS


INFO   : the flag for use of LIBINT has been found!

================================================================================
                                       INPUT FILE
================================================================================
NAME = 38_CoF.in
|  1> #
|  2> # 38_CoF wb97m-v/aug-cc-pvtz
|  3> #
|  4> ! wb97m-v aug-cc-pvtz def2/jk grid4 nofinalgrid
|  5> 
|  6> *xyz 0 3
|  7>   Co  0.00000000000000      0.00000000000000      0.12338928235446
|  8>   F   0.00000000000000      0.00000000000000      1.87661071764554
|  9> *
| 10> 
| 11> %pal
| 12> nprocs 24
| 13> end
| 14> 
| 15> 
| 16>                          ****END OF INPUT****
================================================================================

                       ****************************
                       * Single Point Calculation *
                       ****************************

---------------------------------
CARTESIAN COORDINATES (ANGSTROEM)
---------------------------------
  Co     0.000000    0.000000    0.123389
  F      0.000000    0.000000    1.876611

----------------------------
CARTESIAN COORDINATES (A.U.)
----------------------------
  NO LB      ZA    FRAG     MASS         X           Y           Z
   0 Co   27.0000    0    58.930    0.000000    0.000000    0.233172
   1 F     9.0000    0    18.998    0.000000    0.000000    3.546280

--------------------------------
INTERNAL COORDINATES (ANGSTROEM)
--------------------------------
 Co     0   0   0     0.000000000000     0.00000000     0.00000000
 F      1   0   0     1.753221435291     0.00000000     0.00000000

---------------------------
INTERNAL COORDINATES (A.U.)
---------------------------
 Co     0   0   0     0.000000000000     0.00000000     0.00000000
 F      1   0   0     3.313108364820     0.00000000     0.00000000

---------------------
BASIS SET INFORMATION
---------------------
There are 2 groups of distinct atoms

 Group   1 Type Co  : 116s77p23d3f2g contracted to 8s7p5d3f2g pattern {19191919191911/151515151511/77711/111/11}
 Group   2 Type F   : 19s6p3d2f contracted to 5s4p3d2f pattern {88111/3111/111/11}

Atom   0Co   basis set group =>   1
Atom   1F    basis set group =>   2
----------------------------------
AUXILIARY/JK BASIS SET INFORMATION
----------------------------------
There are 2 groups of distinct atoms

 Group   1 Type Co  : 19s14p12d10f7g3h1i contracted to 16s13p11d9f5g3h1i pattern {4111111111111111/2111111111111/21111111111/211111111/31111/111/1}
 Group   2 Type F   : 14s10p6d2f1g contracted to 10s8p4d2f1g pattern {5111111111/31111111/3111/11/1}

Atom   0Co   basis set group =>   1
Atom   1F    basis set group =>   2


           ************************************************************
           *        Program running with 24 parallel MPI-processes    *
           *              working on a common directory               *
           ************************************************************
------------------------------------------------------------------------------
                           ORCA GTO INTEGRAL CALCULATION
------------------------------------------------------------------------------

                         BASIS SET STATISTICS AND STARTUP INFO

 # of primitive gaussian shells          ...  251
 # of primitive gaussian functions       ...  567
 # of contracted shells                  ...   39
 # of contracted basis functions         ...  139
 Highest angular momentum                ...    4
 Maximum contraction depth               ...   19
 Integral package used                   ... LIBINT
 Integral threshhold            Thresh   ...  1.000e-10
 Primitive cut-off              TCut     ...  1.000e-11


------------------------------ INTEGRAL EVALUATION ----------------------------


 * One electron integrals 
 Pre-screening matrix                    ... done
 Shell pair data                         ... done (   0.001 sec)



           ************************************************************
           *        Program running with 24 parallel MPI-processes    *
           *              working on a common directory               *
           ************************************************************
-------------------------------------------------------------------------------
                                 ORCA SCF
-------------------------------------------------------------------------------

------------
SCF SETTINGS
------------
Hamiltonian:
 Density Functional     Method          .... DFT(GTOs)
 Exchange Functional    Exchange        .... WB97M-V
 Correlation Functional Correlation     .... WB97M-V
 Gradients option       PostSCFGGA      .... off
 Hybrid DFT is turned on
   Fraction HF Exchange ScalHFX         ....  0.150000
   Scaling of DF-GGA-X  ScalDFX         ....  0.000000
   Scaling of DF-GGA-C  ScalDFC         ....  1.000000
   Scaling of DF-LDA-C  ScalLDAC        ....  1.000000
   Perturbative correction              ....  0.000000
   Density functional embedding theory  .... OFF
 Long-range corrected/Screened/Range-Separated Hybrid DFT is turned on
   Amount of maximum screened exact exchange              ....  0.850000
   Range separation parameter mu (erf(mu*r12)/r12)        ....  0.300000
   NL short-range parameter             ....  6.000000
   NL long-range parameter              ....  0.010000


General Settings:
 Integral files         IntName         .... 38_CoF
 Hartree-Fock type      HFTyp           .... UHF
 Total Charge           Charge          ....    0
 Multiplicity           Mult            ....    3
 Number of Electrons    NEL             ....   36
 Basis Dimension        Dim             ....  139
 Nuclear Repulsion      ENuc            ....     73.3450202173 Eh

Convergence Acceleration:
 DIIS                   CNVDIIS         .... on
   Start iteration      DIISMaxIt       ....    12
   Startup error        DIISStart       ....  0.200000
   # of expansion vecs  DIISMaxEq       ....     5
   Bias factor          DIISBfac        ....   1.050
   Max. coefficient     DIISMaxC        ....  10.000
 Newton-Raphson         CNVNR           .... off
 SOSCF                  CNVSOSCF        .... off
 Level Shifting         CNVShift        .... on
   Level shift para.    LevelShift      ....    0.2500
   Turn off err/grad.   ShiftErr        ....    0.0010
 Zerner damping         CNVZerner       .... off
 Static damping         CNVDamp         .... on
   Fraction old density DampFac         ....    0.7000
   Max. Damping (<1)    DampMax         ....    0.9800
   Min. Damping (>=0)   DampMin         ....    0.0000
   Turn off err/grad.   DampErr         ....    0.1000
 Fernandez-Rico         CNVRico         .... off

SCF Procedure:
 Maximum # iterations   MaxIter         ....   125
 SCF integral mode      SCFMode         .... Direct
   Integral package                     .... LIBINT
 Reset frequency        DirectResetFreq ....    20
 Integral Threshold     Thresh          ....  1.000e-10 Eh
 Primitive CutOff       TCut            ....  1.000e-11 Eh

Convergence Tolerance:
 Convergence Check Mode ConvCheckMode   .... Total+1el-Energy
 Convergence forced     ConvForced      .... 0
 Energy Change          TolE            ....  1.000e-06 Eh
 1-El. energy change                    ....  1.000e-03 Eh
 DIIS Error             TolErr          ....  1.000e-06


Diagonalization of the overlap matrix:
Smallest eigenvalue                        ... 1.026e-04
Time for diagonalization                   ...    0.006 sec
Threshold for overlap eigenvalues          ... 1.000e-08
Number of eigenvalues below threshold      ... 0
Time for construction of square roots      ...    0.002 sec
Total time needed                          ...    0.009 sec

-------------------
DFT GRID GENERATION
-------------------

General Integration Accuracy     IntAcc      ...  4.670
Radial Grid Type                 RadialGrid  ... Gauss-Chebyshev
Angular Grid (max. acc.)         AngularGrid ... Lebedev-302
Angular grid pruning method      GridPruning ... 3 (G Style)
Weight generation scheme         WeightScheme... Becke
Basis function cutoff            BFCut       ...    1.0000e-10
Integration weight cutoff        WCut        ...    1.0000e-14
Grids for H and He will be reduced by one unit

# of grid points (after initial pruning)     ...  15912 (   0.0 sec)
# of grid points (after weights+screening)   ...  15863 (   0.0 sec)
nearest neighbour list constructed           ...    0.0 sec
Grid point re-assignment to atoms done       ...    0.0 sec
Grid point division into batches done        ...    0.1 sec
Reduced shell lists constructed in    0.1 sec

Total number of grid points                  ...    15863
Total number of batches                      ...      249
Average number of points per batch           ...       63
Average number of grid points per atom       ...     7932
Average number of shells per batch           ...    13.92 (35.68%)
Average number of basis functions per batch  ...    32.25 (23.20%)
Average number of large shells per batch     ...     7.08 (50.90%)
Average number of large basis fcns per batch ...    17.75 (55.04%)
Maximum spatial batch extension              ...  28.57, 31.41, 18.44 au
Average spatial batch extension              ...   0.89,  0.95,  0.67 au

Time for grid setup =    0.155 sec

------------------------------
INITIAL GUESS: MODEL POTENTIAL
------------------------------
Loading Hartree-Fock densities                     ... done
Calculating cut-offs                               ... done
Setting up the integral package                    ... done
Initializing the effective Hamiltonian             ... done
Starting the Coulomb interaction                   ... done (   0.0 sec)
Reading the grid                                   ... done
Mapping shells                                     ... done
Starting the XC term evaluation                    ... done (   0.0 sec)
  promolecular density results
     # of electrons  =     36.000019389
     EX              =    -67.694585273
     EC              =     -1.515145324
     EX+EC           =    -69.209730598
Transforming the Hamiltonian                       ... done (   0.0 sec)
Diagonalizing the Hamiltonian                      ... done (   0.0 sec)
Back transforming the eigenvectors                 ... done (   0.0 sec)
Now organizing SCF variables                       ... done
                      ------------------
                      INITIAL GUESS DONE (   0.2 sec)
                      ------------------
--------------
SCF ITERATIONS
--------------
ITER       Energy         Delta-E        Max-DP      RMS-DP      [F,P]     Damp
               ***  Starting incremental Fock matrix formation  ***
  0  -1482.5864926536   0.000000000000 2.32613272  0.03934091  0.3056620 0.7000
  1  -1482.4150739978   0.171418655757 0.69400624  0.01178791  0.1471275 0.7000
                               ***Turning on DIIS***
  2  -1482.5233981462  -0.108324148331 1.62840194  0.02767891  0.0714046 0.0000
  3  -1482.6607344782  -0.137336332080 0.00621083  0.00009642  0.1999943 0.7000
  4  -1482.6682413194  -0.007506841159 0.00670372  0.00010533  0.1789868 0.7000
  5  -1482.6755448841  -0.007303564704 0.00575631  0.00011284  0.1569282 0.7000
  6  -1482.6825997160  -0.007054831938 0.00755507  0.00015320  0.1330252 0.7000
  7  -1482.6895713952  -0.006971679203 0.01352672  0.00024371  0.1061946 0.7000
  8  -1482.6966880283  -0.007116633042 0.05006317  0.00067224  0.0691457 0.0000
  9  -1482.7095166941  -0.012828665805 0.02037802  0.00015014  0.0163809 0.0000
 10  -1482.7107129651  -0.001196271031 0.02421442  0.00016433  0.0159927 0.0000
 11  -1482.7119513374  -0.001238372265 0.02409573  0.00017061  0.0155209 0.0000
 12  -1482.7131420865  -0.001190749141 0.03011046  0.00022484  0.0150230 0.0000
 13  -1482.7146170094  -0.001474922891 0.03157498  0.00026027  0.0143510 0.0000
 14  -1482.7161967011  -0.001579691670 0.03058338  0.00027312  0.0135415 0.0000
 15  -1482.7177345012  -0.001537800120 0.03355728  0.00027973  0.0126877 0.0000
 16  -1482.7191954086  -0.001460907368 0.04288202  0.00033875  0.0118465 0.0000
 17  -1482.7208268460  -0.001631437375 0.01760618  0.00013352  0.0108598 0.0000
 18  -1482.7214545085  -0.000627662553 0.03654939  0.00027328  0.0105498 0.0000
 19  -1482.7226540900  -0.001199581463 0.05755436  0.00041710  0.0098645 0.0000
               *** Restarting incremental Fock matrix formation ***
                                   *** Resetting DIIS ***
 20  -1482.7243416608  -0.001687570847 0.01657062  0.00012025  0.0088580 0.0000
 21  -1482.7248347345  -0.000493073706 0.01204814  0.00008735  0.0086363 0.0000
 22  -1482.7251983229  -0.000363588360 0.01428293  0.00010134  0.0085421 0.0000
 23  -1482.7256094122  -0.000411089331 0.02263447  0.00015909  0.0084408 0.0000
 24  -1482.7262362443  -0.000626832119 0.04953113  0.00034322  0.0081879 0.0000
 25  -1482.7274869444  -0.001250700064 0.02529764  0.00017493  0.0075352 0.0000
 26  -1482.7280967830  -0.000609838651 0.08348645  0.00057617  0.0071070 0.0000
 27  -1482.7297540257  -0.001657242701 0.00592909  0.00007321  0.0059495 0.0000
 28  -1482.7299534956  -0.000199469817 0.07454135  0.00052491  0.0053932 0.0000
 29  -1482.7310519433  -0.001098447706 0.04172600  0.00030002  0.0059587 0.0000
 30  -1482.7315561939  -0.000504250669 0.02290842  0.00017193  0.0045842 0.0000
 31  -1482.7318295601  -0.000273366194 0.01834553  0.00013855  0.0018204 0.0000
 32  -1482.7319926286  -0.000163068446 0.01280518  0.00010220  0.0015523 0.0000
 33  -1482.7321042098  -0.000111581267 0.01373605  0.00011043  0.0014014 0.0000
 34  -1482.7321806749  -0.000076465098 0.00482672  0.00004393  0.0015841 0.0000
 35  -1482.7322243709  -0.000043695948 0.00429680  0.00004693  0.0005654 0.0000
 36  -1482.7323008413  -0.000076470388 0.00355004  0.00002841  0.0005790 0.0000
 37  -1482.7323247342  -0.000023892900 0.00566938  0.00004282  0.0004065 0.0000
 38  -1482.7323586202  -0.000033885981 0.00501829  0.00003791  0.0003584 0.0000
 39  -1482.7323835587  -0.000024938572 0.00265302  0.00002023  0.0003717 0.0000
               *** Restarting incremental Fock matrix formation ***
                                   *** Resetting DIIS ***
 40  -1482.7323920546  -0.000008495881 0.00133238  0.00001556  0.0002623 0.0000
 41  -1482.7324020020  -0.000009947432 0.00105380  0.00001193  0.0002277 0.0000
 42  -1482.7324099162  -0.000007914117 0.00140915  0.00001631  0.0003707 0.0000
 43  -1482.7324192988  -0.000009382656 0.00417848  0.00004811  0.0002311 0.0000
 44  -1482.7324427013  -0.000023402447 0.00248777  0.00002864  0.0002009 0.0000
 45  -1482.7324530695  -0.000010368198 0.00216862  0.00002486  0.0000902 0.0000
 46  -1482.7324603181  -0.000007248643 0.00031761  0.00000370  0.0000461 0.0000
                 **** Energy Check signals convergence ****

               *****************************************************
               *                     SUCCESS                       *
               *           SCF CONVERGED AFTER  47 CYCLES          *
               *****************************************************


Setting up the DFT-NL grid :

General Integration Accuracy     IntAcc      ...  4.340
Radial Grid Type                 RadialGrid  ... Gauss-Chebyshev
Angular Grid (max. acc.)         AngularGrid ... Lebedev-110
Angular grid pruning method      GridPruning ... 3 (G Style)
Weight generation scheme         WeightScheme... Becke
Basis function cutoff            BFCut       ...    1.0000e-10
Integration weight cutoff        WCut        ...    1.0000e-14
Grids for H and He will be reduced by one unit

# of grid points (after initial pruning)     ...   4652 (   0.0 sec)
# of grid points (after weights+screening)   ...   4627 (   0.0 sec)
nearest neighbour list constructed           ...    0.0 sec
Grid point re-assignment to atoms done       ...    0.0 sec
Grid point division into batches done        ...    0.0 sec
Reduced shell lists constructed in    0.0 sec

Total number of grid points                  ...     4627
Total number of batches                      ...       73
Average number of points per batch           ...       63
Average number of grid points per atom       ...     2314
Average number of shells per batch           ...    20.80 (53.33%)
Average number of basis functions per batch  ...    59.20 (42.59%)
Average number of large shells per batch     ...    14.40 (69.23%)
Average number of large basis fcns per batch ...    39.20 (66.22%)
Maximum spatial batch extension              ...  19.55, 28.73, 15.95 au
Average spatial batch extension              ...   1.01,  1.33,  0.87 au

Final grid set up in    0.0 sec

-------------------------------------------------------------------------------
                         DFT-NL dispersion correction                          
-------------------------------------------------------------------------------

SC Energy -1482.732461315 
NL    Energy 0.152333730 
SC+NL Energy -1482.580127585 
NL done in    0.0 sec
-------------------------------------------------------------------------------

----------------
TOTAL SCF ENERGY
----------------

Total Energy       :        -1482.58012758 Eh          -40343.05627 eV

Components:
Nuclear Repulsion  :           73.34502022 Eh            1995.81947 eV
Electronic Energy  :        -1555.92514780 Eh          -42338.87574 eV
One Electron Energy:        -2203.56622477 Eh          -59962.08539 eV
Two Electron Energy:          647.64107697 Eh           17623.20965 eV

Virial components:
Potential Energy   :        -2963.24821680 Eh          -80634.08334 eV
Kinetic Energy     :         1480.66808922 Eh           40291.02706 eV
Virial Ratio       :            2.00129133


DFT components:
N(Alpha)           :       19.000016387946 electrons
N(Beta)            :       17.000015657193 electrons
N(Total)           :       36.000032045139 electrons
E(X)               :      -52.981349017232 Eh       
E(C)               :       -1.764891619144 Eh       
NL Energy, E(C,NL) :        0.152333729660 Eh       
E(XC)              :      -54.593906906716 Eh       
DFET-embed. en.    :        0.000000000000 Eh       

---------------
SCF CONVERGENCE
---------------

  Last Energy change         ...   -9.9641e-07  Tolerance :   1.0000e-06
  Last MAX-Density change    ...    4.5094e-04  Tolerance :   1.0000e-05
  Last RMS-Density change    ...    3.7868e-06  Tolerance :   1.0000e-06
  Last DIIS Error            ...    3.3379e-05  Tolerance :   1.0000e-06

             **** THE GBW FILE WAS UPDATED (38_CoF.gbw) ****
             **** DENSITY FILE WAS UPDATED (38_CoF.scfp) ****
             **** ENERGY FILE WAS UPDATED (38_CoF.en.tmp) ****
----------------------
UHF SPIN CONTAMINATION
----------------------

Warning: in a DFT calculation there is little theoretical justification to 
         calculate <S**2> as in Hartree-Fock theory. We will do it anyways
         but you should keep in mind that the values have only limited relevance

Expectation value of <S**2>     :     2.110334
Ideal value S*(S+1) for S=1.0   :     2.000000
Deviation                       :     0.110334

             **** THE GBW FILE WAS UPDATED (38_CoF.gbw) ****
             **** DENSITY FILE WAS UPDATED (38_CoF.scfp) ****
----------------
ORBITAL ENERGIES
----------------
                 SPIN UP ORBITALS
  NO   OCC          E(Eh)            E(eV) 
   0   1.0000    -278.018414     -7565.2657 
   1   1.0000     -33.079186      -900.1304 
   2   1.0000     -28.629268      -779.0420 
   3   1.0000     -28.622317      -778.8528 
   4   1.0000     -28.617732      -778.7281 
   5   1.0000     -24.809673      -675.1055 
   6   1.0000      -3.916819      -106.5821 
   7   1.0000      -2.585620       -70.3583 
   8   1.0000      -2.582229       -70.2660 
   9   1.0000      -2.566289       -69.8323 
  10   1.0000      -1.201122       -32.6842 
  11   1.0000      -0.508584       -13.8393 
  12   1.0000      -0.484780       -13.1915 
  13   1.0000      -0.471570       -12.8321 
  14   1.0000      -0.427157       -11.6235 
  15   1.0000      -0.403641       -10.9836 
  16   1.0000      -0.400506       -10.8983 
  17   1.0000      -0.376183       -10.2365 
  18   1.0000      -0.367517       -10.0006 
  19   0.0000      -0.055167        -1.5012 
  20   0.0000       0.008343         0.2270 
  21   0.0000       0.008565         0.2331 
  22   0.0000       0.018379         0.5001 
  23   0.0000       0.025218         0.6862 
  24   0.0000       0.068380         1.8607 
  25   0.0000       0.068390         1.8610 
  26   0.0000       0.081077         2.2062 
  27   0.0000       0.085421         2.3244 
  28   0.0000       0.085658         2.3309 
  29   0.0000       0.091989         2.5031 
  30   0.0000       0.092487         2.5167 
  31   0.0000       0.121174         3.2973 
  32   0.0000       0.152941         4.1617 
  33   0.0000       0.251149         6.8341 
  34   0.0000       0.251797         6.8518 
  35   0.0000       0.265958         7.2371 
  36   0.0000       0.295310         8.0358 
  37   0.0000       0.295553         8.0424 
  38   0.0000       0.311290         8.4706 
  39   0.0000       0.364973         9.9314 
  40   0.0000       0.366348         9.9688 
  41   0.0000       0.386248        10.5103 
  42   0.0000       0.388703        10.5771 
  43   0.0000       0.435642        11.8544 
  44   0.0000       0.567515        15.4429 
  45   0.0000       0.669807        18.2264 
  46   0.0000       0.851053        23.1583 
  47   0.0000       0.851114        23.1600 
  48   0.0000       0.882421        24.0119 
  49   0.0000       0.884538        24.0695 
  50   0.0000       0.971978        26.4489 
  51   0.0000       1.033701        28.1284 
  52   0.0000       1.033887        28.1335 
  53   0.0000       1.086324        29.5604 
  54   0.0000       1.087982        29.6055 
  55   0.0000       1.097806        29.8728 
  56   0.0000       1.147040        31.2125 
  57   0.0000       1.147823        31.2339 
  58   0.0000       1.210661        32.9438 
  59   0.0000       1.211049        32.9543 
  60   0.0000       1.260338        34.2955 
  61   0.0000       1.260917        34.3113 
  62   0.0000       1.296642        35.2834 
  63   0.0000       1.353369        36.8270 
  64   0.0000       1.361008        37.0349 
  65   0.0000       1.508729        41.0546 
  66   0.0000       1.649511        44.8855 
  67   0.0000       1.716758        46.7154 
  68   0.0000       1.720033        46.8045 
  69   0.0000       2.442619        66.4670 
  70   0.0000       2.713110        73.8275 
  71   0.0000       2.713287        73.8323 
  72   0.0000       2.720401        74.0259 
  73   0.0000       2.721949        74.0680 
  74   0.0000       2.804336        76.3099 
  75   0.0000       2.804342        76.3100 
  76   0.0000       2.920580        79.4730 
  77   0.0000       2.921187        79.4895 
  78   0.0000       2.966309        80.7174 
  79   0.0000       3.165224        86.1301 
  80   0.0000       3.168242        86.2122 
  81   0.0000       3.202794        87.1524 
  82   0.0000       3.251893        88.4885 
  83   0.0000       3.251991        88.4912 
  84   0.0000       3.272418        89.0470 
  85   0.0000       3.284019        89.3627 
  86   0.0000       3.330458        90.6264 
  87   0.0000       3.479813        94.6905 
  88   0.0000       3.489505        94.9543 
  89   0.0000       3.570972        97.1711 
  90   0.0000       3.575489        97.2940 
  91   0.0000       3.874311       105.4254 
  92   0.0000       4.073167       110.8365 
  93   0.0000       4.130587       112.3990 
  94   0.0000       4.131438       112.4222 
  95   0.0000       4.135526       112.5334 
  96   0.0000       4.135591       112.5351 
  97   0.0000       4.311223       117.3143 
  98   0.0000       4.317124       117.4749 
  99   0.0000       4.574459       124.4773 
 100   0.0000       4.692988       127.7027 
 101   0.0000       4.705380       128.0399 
 102   0.0000       5.038263       137.0981 
 103   0.0000       5.041216       137.1785 
 104   0.0000       5.245956       142.7497 
 105   0.0000       5.269805       143.3987 
 106   0.0000       5.490229       149.3967 
 107   0.0000       5.586392       152.0135 
 108   0.0000       5.610803       152.6777 
 109   0.0000       6.672129       181.5579 
 110   0.0000       8.501460       231.3365 
 111   0.0000       8.501464       231.3366 
 112   0.0000       8.597209       233.9420 
 113   0.0000       8.597361       233.9461 
 114   0.0000       8.869804       241.3596 
 115   0.0000       8.920465       242.7382 
 116   0.0000       8.923029       242.8080 
 117   0.0000       8.932081       243.0543 
 118   0.0000       8.932575       243.0677 
 119   0.0000       9.033054       245.8019 
 120   0.0000       9.036392       245.8927 
 121   0.0000       9.267166       252.1724 
 122   0.0000      10.566041       287.5166 
 123   0.0000      10.567570       287.5582 
 124   0.0000      10.570040       287.6254 
 125   0.0000      10.590286       288.1763 
 126   0.0000      10.648124       289.7502 
 127   0.0000      10.686025       290.7815 
 128   0.0000      10.803212       293.9704 
 129   0.0000      11.640545       316.7553 
 130   0.0000      11.640593       316.7566 
 131   0.0000      11.641971       316.7941 
 132   0.0000      11.642465       316.8076 
 133   0.0000      11.702068       318.4295 
 134   0.0000      11.719087       318.8926 
 135   0.0000      11.939285       324.8845 
 136   0.0000      11.966134       325.6151 
 137   0.0000      12.106012       329.4213 
 138   0.0000      14.148337       384.9958 

                 SPIN DOWN ORBITALS
  NO   OCC          E(Eh)            E(eV) 
   0   1.0000    -278.017654     -7565.2450 
   1   1.0000     -33.025313      -898.6644 
   2   1.0000     -28.584754      -777.8307 
   3   1.0000     -28.579061      -777.6758 
   4   1.0000     -28.578414      -777.6582 
   5   1.0000     -24.807857      -675.0561 
   6   1.0000      -3.812138      -103.7336 
   7   1.0000      -2.466441       -67.1153 
   8   1.0000      -2.462429       -67.0061 
   9   1.0000      -2.459931       -66.9381 
  10   1.0000      -1.196674       -32.5631 
  11   1.0000      -0.485298       -13.2056 
  12   1.0000      -0.460853       -12.5405 
  13   1.0000      -0.446654       -12.1541 
  14   1.0000      -0.354204        -9.6384 
  15   1.0000      -0.334424        -9.1001 
  16   1.0000      -0.309069        -8.4102 
  17   0.0000      -0.029067        -0.7909 
  18   0.0000       0.020733         0.5642 
  19   0.0000       0.022016         0.5991 
  20   0.0000       0.029304         0.7974 
  21   0.0000       0.030906         0.8410 
  22   0.0000       0.059209         1.6112 
  23   0.0000       0.060186         1.6377 
  24   0.0000       0.082384         2.2418 
  25   0.0000       0.099690         2.7127 
  26   0.0000       0.104463         2.8426 
  27   0.0000       0.104805         2.8519 
  28   0.0000       0.105180         2.8621 
  29   0.0000       0.108054         2.9403 
  30   0.0000       0.111510         3.0343 
  31   0.0000       0.131518         3.5788 
  32   0.0000       0.165864         4.5134 
  33   0.0000       0.258702         7.0396 
  34   0.0000       0.261320         7.1109 
  35   0.0000       0.272278         7.4091 
  36   0.0000       0.299593         8.1523 
  37   0.0000       0.301142         8.1945 
  38   0.0000       0.325153         8.8479 
  39   0.0000       0.384892        10.4734 
  40   0.0000       0.397006        10.8031 
  41   0.0000       0.402087        10.9414 
  42   0.0000       0.417494        11.3606 
  43   0.0000       0.441315        12.0088 
  44   0.0000       0.580637        15.7999 
  45   0.0000       0.682140        18.5620 
  46   0.0000       0.851936        23.1824 
  47   0.0000       0.852303        23.1923 
  48   0.0000       0.895050        24.3555 
  49   0.0000       0.901795        24.5391 
  50   0.0000       0.979079        26.6421 
  51   0.0000       1.037437        28.2301 
  52   0.0000       1.042407        28.3653 
  53   0.0000       1.076641        29.2969 
  54   0.0000       1.086035        29.5525 
  55   0.0000       1.099628        29.9224 
  56   0.0000       1.145805        31.1789 
  57   0.0000       1.146525        31.1985 
  58   0.0000       1.210373        32.9359 
  59   0.0000       1.210668        32.9440 
  60   0.0000       1.264243        34.4018 
  61   0.0000       1.273055        34.6416 
  62   0.0000       1.298520        35.3345 
  63   0.0000       1.374055        37.3899 
  64   0.0000       1.394694        37.9516 
  65   0.0000       1.512883        41.1676 
  66   0.0000       1.661036        45.1991 
  67   0.0000       1.726088        46.9692 
  68   0.0000       1.739344        47.3300 
  69   0.0000       2.451430        66.7068 
  70   0.0000       2.714942        73.8773 
  71   0.0000       2.715041        73.8800 
  72   0.0000       2.724699        74.1428 
  73   0.0000       2.725208        74.1567 
  74   0.0000       2.805046        76.3292 
  75   0.0000       2.805096        76.3305 
  76   0.0000       2.922017        79.5121 
  77   0.0000       2.922654        79.5295 
  78   0.0000       2.983298        81.1797 
  79   0.0000       3.182657        86.6045 
  80   0.0000       3.188836        86.7727 
  81   0.0000       3.231785        87.9413 
  82   0.0000       3.300300        89.8057 
  83   0.0000       3.301454        89.8371 
  84   0.0000       3.323853        90.4466 
  85   0.0000       3.341059        90.9148 
  86   0.0000       3.388759        92.2128 
  87   0.0000       3.542145        96.3867 
  88   0.0000       3.548434        96.5578 
  89   0.0000       3.602579        98.0312 
  90   0.0000       3.609702        98.2250 
  91   0.0000       3.921695       106.7147 
  92   0.0000       4.105686       111.7214 
  93   0.0000       4.143962       112.7629 
  94   0.0000       4.152711       113.0010 
  95   0.0000       4.158059       113.1465 
  96   0.0000       4.159074       113.1742 
  97   0.0000       4.328603       117.7873 
  98   0.0000       4.333945       117.9326 
  99   0.0000       4.588812       124.8679 
 100   0.0000       4.722683       128.5107 
 101   0.0000       4.737339       128.9095 
 102   0.0000       5.043495       137.2405 
 103   0.0000       5.045616       137.2982 
 104   0.0000       5.318186       144.7152 
 105   0.0000       5.367768       146.0644 
 106   0.0000       5.522612       150.2779 
 107   0.0000       5.656683       153.9262 
 108   0.0000       5.697812       155.0453 
 109   0.0000       6.723472       182.9550 
 110   0.0000       8.505162       231.4372 
 111   0.0000       8.505196       231.4381 
 112   0.0000       8.600307       234.0262 
 113   0.0000       8.600395       234.0287 
 114   0.0000       8.873733       241.4666 
 115   0.0000       8.924552       242.8494 
 116   0.0000       8.924632       242.8516 
 117   0.0000       8.937856       243.2114 
 118   0.0000       8.938374       243.2255 
 119   0.0000       9.040068       245.9927 
 120   0.0000       9.041118       246.0213 
 121   0.0000       9.276910       252.4376 
 122   0.0000      10.667770       290.2848 
 123   0.0000      10.675794       290.5031 
 124   0.0000      10.681522       290.6590 
 125   0.0000      10.709684       291.4253 
 126   0.0000      10.767541       292.9997 
 127   0.0000      10.785916       293.4997 
 128   0.0000      10.899412       296.5881 
 129   0.0000      11.717985       318.8626 
 130   0.0000      11.720197       318.9228 
 131   0.0000      11.721687       318.9633 
 132   0.0000      11.724474       319.0392 
 133   0.0000      11.784038       320.6600 
 134   0.0000      11.801895       321.1459 
 135   0.0000      12.023032       327.1633 
 136   0.0000      12.031513       327.3941 
 137   0.0000      12.177047       331.3543 
 138   0.0000      14.157528       385.2459 

                    ********************************
                    * MULLIKEN POPULATION ANALYSIS *
                    ********************************

--------------------------------------------
MULLIKEN ATOMIC CHARGES AND SPIN POPULATIONS
--------------------------------------------
   0 Co:    0.641766    1.948854
   1 F :   -0.641766    0.051146
Sum of atomic charges         :   -0.0000000
Sum of atomic spin populations:    2.0000000

-----------------------------------------------------
MULLIKEN REDUCED ORBITAL CHARGES AND SPIN POPULATIONS
-----------------------------------------------------
CHARGE
  0 Cos       :     6.510233  s :     6.510233
      pz      :     4.047799  p :    12.120178
      px      :     4.035543
      py      :     4.036837
      dz2     :     1.505111  d :     7.709757
      dxz     :     1.467236
      dyz     :     1.556435
      dx2y2   :     1.992264
      dxy     :     1.188710
      f0      :     0.007409  f :     0.016936
      f+1     :     0.004518
      f-1     :     0.004616
      f+2     :     0.000192
      f-2     :     0.000146
      f+3     :     0.000031
      f-3     :     0.000024
      g0      :     0.000549  g :     0.001130
      g+1     :     0.000277
      g-1     :     0.000276
      g+2     :     0.000002
      g-2     :     0.000010
      g+3     :     0.000002
      g-3     :     0.000003
      g+4     :     0.000008
      g-4     :     0.000002
  1 F s       :     3.974766  s :     3.974766
      pz      :     1.768574  p :     5.654944
      px      :     1.941612
      py      :     1.944757
      dz2     :     0.002834  d :     0.010031
      dxz     :     0.003425
      dyz     :     0.003449
      dx2y2   :     0.000199
      dxy     :     0.000124
      f0      :     0.000906  f :     0.002026
      f+1     :     0.000473
      f-1     :     0.000487
      f+2     :     0.000102
      f-2     :     0.000059
      f+3     :     0.000000
      f-3     :     0.000000

SPIN
  0 Cos       :    -0.205325  s :    -0.205325
      pz      :     0.007076  p :     0.011044
      px      :     0.002386
      py      :     0.001582
      dz2     :     0.359531  d :     2.141606
      dxz     :     0.526971
      dyz     :     0.437283
      dx2y2   :     0.007319
      dxy     :     0.810501
      f0      :     0.000757  f :     0.001543
      f+1     :     0.000445
      f-1     :     0.000364
      f+2     :    -0.000017
      f-2     :     0.000035
      f+3     :    -0.000025
      f-3     :    -0.000017
      g0      :    -0.000017  g :    -0.000014
      g+1     :     0.000001
      g-1     :     0.000001
      g+2     :     0.000002
      g-2     :    -0.000004
      g+3     :     0.000002
      g-3     :     0.000003
      g+4     :    -0.000001
      g-4     :    -0.000001
  1 F s       :     0.004307  s :     0.004307
      pz      :     0.015712  p :     0.047606
      px      :     0.017538
      py      :     0.014356
      dz2     :     0.000108  d :    -0.000855
      dxz     :    -0.000457
      dyz     :    -0.000463
      dx2y2   :    -0.000060
      dxy     :     0.000017
      f0      :     0.000039  f :     0.000089
      f+1     :     0.000020
      f-1     :     0.000010
      f+2     :    -0.000008
      f-2     :     0.000029
      f+3     :     0.000000
      f-3     :     0.000000


                     *******************************
                     * LOEWDIN POPULATION ANALYSIS *
                     *******************************

-------------------------------------------
LOEWDIN ATOMIC CHARGES AND SPIN POPULATIONS
-------------------------------------------
   0 Co:    0.461231    1.956062
   1 F :   -0.461231    0.043938

----------------------------------------------------
LOEWDIN REDUCED ORBITAL CHARGES AND SPIN POPULATIONS
----------------------------------------------------
CHARGE
  0 Cos       :     6.394610  s :     6.394610
      pz      :     4.101902  p :    12.216731
      px      :     4.056221
      py      :     4.058608
      dz2     :     1.577720  d :     7.773279
      dxz     :     1.468305
      dyz     :     1.553931
      dx2y2   :     1.987287
      dxy     :     1.186035
      f0      :     0.062893  f :     0.146896
      f+1     :     0.041384
      f-1     :     0.041904
      f+2     :     0.000402
      f-2     :     0.000257
      f+3     :     0.000031
      f-3     :     0.000024
      g0      :     0.003695  g :     0.007254
      g+1     :     0.001752
      g-1     :     0.001776
      g+2     :     0.000005
      g-2     :     0.000011
      g+3     :     0.000002
      g-3     :     0.000003
      g+4     :     0.000008
      g-4     :     0.000002
  1 F s       :     3.721840  s :     3.721840
      pz      :     1.847228  p :     5.524951
      px      :     1.837460
      py      :     1.840263
      dz2     :     0.087530  d :     0.169301
      dxz     :     0.037210
      dyz     :     0.039023
      dx2y2   :     0.003607
      dxy     :     0.001930
      f0      :     0.020762  f :     0.045138
      f+1     :     0.010752
      f-1     :     0.011351
      f+2     :     0.001458
      f-2     :     0.000815
      f+3     :     0.000000
      f-3     :     0.000000

SPIN
  0 Cos       :    -0.170169  s :    -0.170169
      pz      :     0.012151  p :     0.021829
      px      :     0.005658
      py      :     0.004020
      dz2     :     0.346390  d :     2.098236
      dxz     :     0.510908
      dyz     :     0.424376
      dx2y2   :     0.007675
      dxy     :     0.808887
      f0      :     0.001651  f :     0.005837
      f+1     :     0.002307
      f-1     :     0.001856
      f+2     :    -0.000036
      f-2     :     0.000101
      f+3     :    -0.000025
      f-3     :    -0.000017
      g0      :     0.000086  g :     0.000330
      g+1     :     0.000134
      g-1     :     0.000113
      g+2     :    -0.000002
      g-2     :    -0.000003
      g+3     :     0.000002
      g-3     :     0.000003
      g+4     :    -0.000001
      g-4     :    -0.000001
  1 F s       :    -0.007295  s :    -0.007295
      pz      :    -0.004279  p :     0.025955
      px      :     0.016575
      py      :     0.013659
      dz2     :     0.002037  d :     0.017559
      dxz     :     0.008200
      dyz     :     0.006557
      dx2y2   :    -0.000326
      dxy     :     0.001091
      f0      :     0.001615  f :     0.007718
      f+1     :     0.003124
      f-1     :     0.002552
      f+2     :    -0.000075
      f-2     :     0.000502
      f+3     :     0.000000
      f-3     :     0.000000


                      *****************************
                      * MAYER POPULATION ANALYSIS *
                      *****************************

  NA   - Mulliken gross atomic population
  ZA   - Total nuclear charge
  QA   - Mulliken gross atomic charge
  VA   - Mayer's total valence
  BVA  - Mayer's bonded valence
  FA   - Mayer's free valence

  ATOM       NA         ZA         QA         VA         BVA        FA
  0 Co    26.3582    27.0000     0.6418     2.8478     0.7078     2.1400
  1 F      9.6418     9.0000    -0.6418     0.7101     0.7078     0.0022

  Mayer bond orders larger than 0.100000
B(  0-Co,  1-F ) :   0.7078 

-------
TIMINGS
-------

Total SCF time: 0 days 0 hours 9 min 56 sec 

Total time                  ....     596.070 sec
Sum of individual times     ....     595.675 sec  ( 99.9%)

Fock matrix formation       ....     595.046 sec  ( 99.8%)
  XC integration            ....       1.499 sec  (  0.3% of F)
    Basis function eval.    ....       0.217 sec  ( 14.5% of XC)
    Density eval.           ....       0.251 sec  ( 16.7% of XC)
    XC-Functional eval.     ....       0.059 sec  (  4.0% of XC)
    XC-Potential eval.      ....       0.693 sec  ( 46.2% of XC)
Diagonalization             ....       0.240 sec  (  0.0%)
Density matrix formation    ....       0.029 sec  (  0.0%)
Population analysis         ....       0.007 sec  (  0.0%)
Initial guess               ....       0.097 sec  (  0.0%)
Orbital Transformation      ....       0.000 sec  (  0.0%)
Orbital Orthonormalization  ....       0.000 sec  (  0.0%)
DIIS solution               ....       0.087 sec  (  0.0%)
Grid generation             ....       0.170 sec  (  0.0%)

-------------------------   --------------------
FINAL SINGLE POINT ENERGY     -1482.580127584854
-------------------------   --------------------


                            ***************************************
                            *     ORCA property calculations      *
                            ***************************************

                                    ---------------------
                                    Active property flags
                                    ---------------------
   (+) Dipole Moment


------------------------------------------------------------------------------
                       ORCA ELECTRIC PROPERTIES CALCULATION
------------------------------------------------------------------------------

Dipole Moment Calculation                       ... on
Quadrupole Moment Calculation                   ... off
Polarizability Calculation                      ... off
GBWName                                         ... 38_CoF.gbw
Electron density file                           ... 38_CoF.scfp
The origin for moment calculation is the CENTER OF MASS  = ( 0.000000,  0.000000  1.040872)

-------------
DIPOLE MOMENT
-------------
                                X             Y             Z
Electronic contribution:     -0.00000      -0.00000      -2.72868
Nuclear contribution   :      0.00000       0.00000       0.74078
                        -----------------------------------------
Total Dipole Moment    :     -0.00000      -0.00000      -1.98789
                        -----------------------------------------
Magnitude (a.u.)       :      1.98789
Magnitude (Debye)      :      5.05283



--------------------
Rotational spectrum 
--------------------
 
Rotational constants in cm-1:     0.000000     0.381744     0.381744 
Rotational constants in MHz :     0.000000 11444.406260 11444.406260 

 Dipole components along the rotational axes: 
x,y,z [a.u.] :    -1.987895    -0.000000    -0.000000 
x,y,z [Debye]:    -5.052827    -0.000000    -0.000000 

 

Timings for individual modules:

Sum of individual times         ...      599.462 sec (=   9.991 min)
GTO integral calculation        ...        2.877 sec (=   0.048 min)   0.5 %
SCF iterations                  ...      596.585 sec (=   9.943 min)  99.5 %
                             ****ORCA TERMINATED NORMALLY****
TOTAL RUN TIME: 0 days 0 hours 10 minutes 0 seconds 71 msec
