
                                 *****************
                                 * O   R   C   A *
                                 *****************

           --- An Ab Initio, DFT and Semiempirical electronic structure package ---

                  #######################################################
                  #                        -***-                        #
                  #          Department of theory and spectroscopy      #
                  #               Directorship: Frank Neese             #
                  #        Max Planck Institute fuer Kohlenforschung    #
                  #                Kaiser Wilhelm Platz 1               #
                  #                 D-45470 Muelheim/Ruhr               #
                  #                      Germany                        #
                  #                                                     #
                  #                  All rights reserved                #
                  #                        -***-                        #
                  #######################################################


                         Program Version 4.2.0 -  RELEASE  -


 With contributions from (in alphabetic order):
   Daniel Aravena         : Magnetic Suceptibility
   Michael Atanasov       : Ab Initio Ligand Field Theory (pilot matlab implementation)
   Alexander A. Auer      : GIAO ZORA, VPT2
   Ute Becker             : Parallelization
   Giovanni Bistoni       : ED, misc. LED, open-shell LED, HFLED
   Martin Brehm           : Molecular dynamics
   Dmytro Bykov           : SCF Hessian
   Vijay G. Chilkuri      : MRCI spin determinant printing, contributions to CSF-ICE
   Dipayan Datta          : RHF DLPNO-CCSD density
   Achintya Kumar Dutta   : EOM-CC, STEOM-CC
   Dmitry Ganyushin       : Spin-Orbit,Spin-Spin,Magnetic field MRCI
   Miquel Garcia          : C-PCM Hessian, Gaussian charge scheme
   Yang Guo               : DLPNO-NEVPT2, CIM, IAO-localization
   Andreas Hansen         : Spin unrestricted coupled pair/coupled cluster methods
   Benjamin Helmich-Paris : CASSCF linear response (MC-RPA)
   Lee Huntington         : MR-EOM, pCC
   Robert Izsak           : Overlap fitted RIJCOSX, COSX-SCS-MP3, EOM
   Christian Kollmar      : KDIIS, OOCD, Brueckner-CCSD(T), CCSD density
   Simone Kossmann        : Meta GGA functionals, TD-DFT gradient, OOMP2, MP2 Hessian
   Martin Krupicka        : AUTO-CI
   Lucas Lang             : DCDCAS
   Dagmar Lenk            : GEPOL surface, SMD
   Dimitrios Liakos       : Extrapolation schemes; Compound Job, initial MDCI parallelization
   Dimitrios Manganas     : Further ROCIS development; embedding schemes
   Dimitrios Pantazis     : SARC Basis sets
   Taras Petrenko         : DFT Hessian,TD-DFT gradient, ASA, ECA, R-Raman, ABS, FL, XAS/XES, NRVS
   Peter Pinski           : DLPNO-MP2, DLPNO-MP2 Gradient
   Christoph Reimann      : Effective Core Potentials
   Marius Retegan         : Local ZFS, SOC
   Christoph Riplinger    : Optimizer, TS searches, QM/MM, DLPNO-CCSD(T), (RO)-DLPNO pert. Triples
   Tobias Risthaus        : Range-separated hybrids, TD-DFT gradient, RPA, STAB
   Michael Roemelt        : Original ROCIS implementation
   Masaaki Saitow         : Open-shell DLPNO-CCSD energy and density
   Barbara Sandhoefer     : DKH picture change effects
   Avijit Sen             : IP-ROCIS
   Kantharuban Sivalingam : CASSCF convergence, NEVPT2, FIC-MRCI
   Bernardo de Souza      : ESD, SOC TD-DFT
   Georgi Stoychev        : AutoAux, RI-MP2 NMR
   Willem Van den Heuvel  : Paramagnetic NMR
   Boris Wezisla          : Elementary symmetry handling
   Frank Wennmohs         : Technical directorship


 We gratefully acknowledge several colleagues who have allowed us to
 interface, adapt or use parts of their codes:
   Stefan Grimme, W. Hujo, H. Kruse,             : VdW corrections, initial TS optimization,
                  C. Bannwarth                     DFT functionals, gCP, sTDA/sTD-DF
   Ed Valeev, F. Pavosevic, A. Kumar             : LibInt (2-el integral package), F12 methods
   Garnet Chan, S. Sharma, J. Yang, R. Olivares  : DMRG
   Ulf Ekstrom                                   : XCFun DFT Library
   Mihaly Kallay                                 : mrcc  (arbitrary order and MRCC methods)
   Andreas Klamt, Michael Diedenhofen            : otool_cosmo (COSMO solvation model)
   Jiri Pittner, Ondrej Demel                    : Mk-CCSD
   Frank Weinhold                                : gennbo (NPA and NBO analysis)
   Christopher J. Cramer and Donald G. Truhlar   : smd solvation model
   Lars Goerigk                                  : TD-DFT with DH, B97 family of functionals
   V. Asgeirsson, H. Jonsson                     : NEB implementation
   FAccTs GmbH                                   : IRC, NEB, NEB-TS, Multilevel, MM, QM/MM, CI optimization
   S Lehtola, MJT Oliveira, MAL Marques          : LibXC Library


 Your calculation uses the libint2 library for the computation of 2-el integrals
 For citations please refer to: http://libint.valeyev.net

 Your ORCA version has been built with support for libXC version: 4.2.3
 For citations please refer to: https://tddft.org/programs/libxc/

 This ORCA versions uses:
   CBLAS   interface :  Fast vector & matrix operations
   LAPACKE interface :  Fast linear algebra routines
   SCALAPACK package :  Parallel linear algebra routines


Your calculation utilizes the DFT-NL dispersion correction.
Cite in your paper:
Vydrov, O. A.; Van Voorhis, T. J. Chem. Phys. 2010, 133, 244103
Hujo, W.; Grimme, S. J. Chem. Theory Comput. 2011, 7, 3866 
   

----- Orbital basis set information -----
Your calculation utilizes the basis: aug-cc-pVTZ 
    H, B-Ne : Obtained from the ccRepo (grant-hill.group.shef.ac.uk/ccrepo) Feb. 2017
              R. A. Kendall, T. H. Dunning, Jr., R. J. Harrison, J. Chem. Phys. 96, 6796 (1992)
         He : Obtained from the ccRepo (grant-hill.group.shef.ac.uk/ccrepo) Feb. 2017
              D. E. Woon, T. H. Dunning, Jr., J. Chem. Phys. 100, 2975 (1994)
  Li-Be, Na : Obtained from the ccRepo (grant-hill.group.shef.ac.uk/ccrepo) Feb. 2017
              B. P. Prascher, D. E. Woon, K. A. Peterson, T. H. Dunning, Jr., A. K. Wilson, Theor. Chem. Acc. 128, 69 (2011)
         Mg : Obtained from the Peterson Research Group Website (tyr0.chem.wsu.edu/~kipeters) Feb. 2017
              B. P. Prascher, D. E. Woon, K. A. Peterson, T. H. Dunning, Jr., A. K. Wilson, Theor. Chem. Acc. 128, 69 (2011)
      Al-Ar : Obtained from the ccRepo (grant-hill.group.shef.ac.uk/ccrepo) Feb. 2017
              D. E. Woon, T. H. Dunning, Jr., J. Chem. Phys. 98, 1358 (1993)
      Sc-Zn : Obtained from the ccRepo (grant-hill.group.shef.ac.uk/ccrepo) Feb. 2017
              N. B. Balabanov, K. A. Peterson, J. Chem. Phys. 123, 064107 (2005)
              N. B. Balabanov, K. A. Peterson, J. Chem. Phys. 125, 074110 (2006)
      Ga-Kr : Obtained from the ccRepo (grant-hill.group.shef.ac.uk/ccrepo) Feb. 2017
              A. K. Wilson, D. E. Woon, K. A. Peterson, T. H. Dunning, Jr., J. Chem. Phys. 110, 7667 (1999)
     Ag, Au : Obtained from the Peterson Research Group Website (tyr0.chem.wsu.edu/~kipeters) Feb. 2017
              K. A. Peterson, C. Puzzarini, Theor. Chem. Acc. 114, 283 (2005)

----- AuxJK basis set information -----
Your calculation utilizes the auxiliary basis: def2/JK
   H-Ba, Hf-Rn: F. Weigend, J. Comput. Chem. 29, 167 (2008).

================================================================================
                                        WARNINGS
                       Please study these warnings very carefully!
================================================================================


WARNING: your system is open-shell and RHF/RKS was chosen
  ===> : WILL SWITCH to UHF/UKS


INFO   : the flag for use of LIBINT has been found!

================================================================================
                                       INPUT FILE
================================================================================
NAME = 39_CoCl.in
|  1> #
|  2> # 39_CoCl wb97m-v/aug-cc-pvtz
|  3> #
|  4> ! wb97m-v aug-cc-pvtz def2/jk grid4 nofinalgrid
|  5> 
|  6> *xyz 0 3
|  7>   Co  0.00000000000000      0.00000000000000     -0.04491550120186
|  8>   Cl  0.00000000000000      0.00000000000000      2.04491550120186
|  9> *
| 10> 
| 11> %pal
| 12> nprocs 24
| 13> end
| 14> 
| 15> 
| 16>                          ****END OF INPUT****
================================================================================

                       ****************************
                       * Single Point Calculation *
                       ****************************

---------------------------------
CARTESIAN COORDINATES (ANGSTROEM)
---------------------------------
  Co     0.000000    0.000000   -0.044916
  Cl     0.000000    0.000000    2.044916

----------------------------
CARTESIAN COORDINATES (A.U.)
----------------------------
  NO LB      ZA    FRAG     MASS         X           Y           Z
   0 Co   27.0000    0    58.930    0.000000    0.000000   -0.084878
   1 Cl   17.0000    0    35.453    0.000000    0.000000    3.864330

--------------------------------
INTERNAL COORDINATES (ANGSTROEM)
--------------------------------
 Co     0   0   0     0.000000000000     0.00000000     0.00000000
 Cl     1   0   0     2.089831002404     0.00000000     0.00000000

---------------------------
INTERNAL COORDINATES (A.U.)
---------------------------
 Co     0   0   0     0.000000000000     0.00000000     0.00000000
 Cl     1   0   0     3.949208260721     0.00000000     0.00000000

---------------------
BASIS SET INFORMATION
---------------------
There are 2 groups of distinct atoms

 Group   1 Type Co  : 116s77p23d3f2g contracted to 8s7p5d3f2g pattern {19191919191911/151515151511/77711/111/11}
 Group   2 Type Cl  : 42s17p3d2f contracted to 6s5p3d2f pattern {131313111/77111/111/11}

Atom   0Co   basis set group =>   1
Atom   1Cl   basis set group =>   2
----------------------------------
AUXILIARY/JK BASIS SET INFORMATION
----------------------------------
There are 2 groups of distinct atoms

 Group   1 Type Co  : 19s14p12d10f7g3h1i contracted to 16s13p11d9f5g3h1i pattern {4111111111111111/2111111111111/21111111111/211111111/31111/111/1}
 Group   2 Type Cl  : 16s12p10d4f1g contracted to 13s11p9d4f1g pattern {4111111111111/21111111111/211111111/1111/1}

Atom   0Co   basis set group =>   1
Atom   1Cl   basis set group =>   2


           ************************************************************
           *        Program running with 24 parallel MPI-processes    *
           *              working on a common directory               *
           ************************************************************
------------------------------------------------------------------------------
                           ORCA GTO INTEGRAL CALCULATION
------------------------------------------------------------------------------

                         BASIS SET STATISTICS AND STARTUP INFO

 # of primitive gaussian shells          ...  285
 # of primitive gaussian functions       ...  623
 # of contracted shells                  ...   41
 # of contracted basis functions         ...  143
 Highest angular momentum                ...    4
 Maximum contraction depth               ...   19
 Integral package used                   ... LIBINT
 Integral threshhold            Thresh   ...  1.000e-10
 Primitive cut-off              TCut     ...  1.000e-11


------------------------------ INTEGRAL EVALUATION ----------------------------


 * One electron integrals 
 Pre-screening matrix                    ... done
 Shell pair data                         ... done (   0.001 sec)



           ************************************************************
           *        Program running with 24 parallel MPI-processes    *
           *              working on a common directory               *
           ************************************************************
-------------------------------------------------------------------------------
                                 ORCA SCF
-------------------------------------------------------------------------------

------------
SCF SETTINGS
------------
Hamiltonian:
 Density Functional     Method          .... DFT(GTOs)
 Exchange Functional    Exchange        .... WB97M-V
 Correlation Functional Correlation     .... WB97M-V
 Gradients option       PostSCFGGA      .... off
 Hybrid DFT is turned on
   Fraction HF Exchange ScalHFX         ....  0.150000
   Scaling of DF-GGA-X  ScalDFX         ....  0.000000
   Scaling of DF-GGA-C  ScalDFC         ....  1.000000
   Scaling of DF-LDA-C  ScalLDAC        ....  1.000000
   Perturbative correction              ....  0.000000
   Density functional embedding theory  .... OFF
 Long-range corrected/Screened/Range-Separated Hybrid DFT is turned on
   Amount of maximum screened exact exchange              ....  0.850000
   Range separation parameter mu (erf(mu*r12)/r12)        ....  0.300000
   NL short-range parameter             ....  6.000000
   NL long-range parameter              ....  0.010000


General Settings:
 Integral files         IntName         .... 39_CoCl
 Hartree-Fock type      HFTyp           .... UHF
 Total Charge           Charge          ....    0
 Multiplicity           Mult            ....    3
 Number of Electrons    NEL             ....   44
 Basis Dimension        Dim             ....  143
 Nuclear Repulsion      ENuc            ....    116.2258279882 Eh

Convergence Acceleration:
 DIIS                   CNVDIIS         .... on
   Start iteration      DIISMaxIt       ....    12
   Startup error        DIISStart       ....  0.200000
   # of expansion vecs  DIISMaxEq       ....     5
   Bias factor          DIISBfac        ....   1.050
   Max. coefficient     DIISMaxC        ....  10.000
 Newton-Raphson         CNVNR           .... off
 SOSCF                  CNVSOSCF        .... off
 Level Shifting         CNVShift        .... on
   Level shift para.    LevelShift      ....    0.2500
   Turn off err/grad.   ShiftErr        ....    0.0010
 Zerner damping         CNVZerner       .... off
 Static damping         CNVDamp         .... on
   Fraction old density DampFac         ....    0.7000
   Max. Damping (<1)    DampMax         ....    0.9800
   Min. Damping (>=0)   DampMin         ....    0.0000
   Turn off err/grad.   DampErr         ....    0.1000
 Fernandez-Rico         CNVRico         .... off

SCF Procedure:
 Maximum # iterations   MaxIter         ....   125
 SCF integral mode      SCFMode         .... Direct
   Integral package                     .... LIBINT
 Reset frequency        DirectResetFreq ....    20
 Integral Threshold     Thresh          ....  1.000e-10 Eh
 Primitive CutOff       TCut            ....  1.000e-11 Eh

Convergence Tolerance:
 Convergence Check Mode ConvCheckMode   .... Total+1el-Energy
 Convergence forced     ConvForced      .... 0
 Energy Change          TolE            ....  1.000e-06 Eh
 1-El. energy change                    ....  1.000e-03 Eh
 DIIS Error             TolErr          ....  1.000e-06


Diagonalization of the overlap matrix:
Smallest eigenvalue                        ... 1.371e-04
Time for diagonalization                   ...    0.005 sec
Threshold for overlap eigenvalues          ... 1.000e-08
Number of eigenvalues below threshold      ... 0
Time for construction of square roots      ...    0.003 sec
Total time needed                          ...    0.008 sec

-------------------
DFT GRID GENERATION
-------------------

General Integration Accuracy     IntAcc      ...  4.670
Radial Grid Type                 RadialGrid  ... Gauss-Chebyshev
Angular Grid (max. acc.)         AngularGrid ... Lebedev-302
Angular grid pruning method      GridPruning ... 3 (G Style)
Weight generation scheme         WeightScheme... Becke
Basis function cutoff            BFCut       ...    1.0000e-10
Integration weight cutoff        WCut        ...    1.0000e-14
Grids for H and He will be reduced by one unit

# of grid points (after initial pruning)     ...  16378 (   0.0 sec)
# of grid points (after weights+screening)   ...  16349 (   0.0 sec)
nearest neighbour list constructed           ...    0.0 sec
Grid point re-assignment to atoms done       ...    0.0 sec
Grid point division into batches done        ...    0.1 sec
Reduced shell lists constructed in    0.1 sec

Total number of grid points                  ...    16349
Total number of batches                      ...      257
Average number of points per batch           ...       63
Average number of grid points per atom       ...     8174
Average number of shells per batch           ...    13.00 (31.71%)
Average number of basis functions per batch  ...    30.17 (21.10%)
Average number of large shells per batch     ...     6.83 (52.56%)
Average number of large basis fcns per batch ...    17.83 (59.12%)
Maximum spatial batch extension              ...  24.49, 24.19, 17.58 au
Average spatial batch extension              ...   0.85,  0.84,  0.65 au

Time for grid setup =    0.156 sec

------------------------------
INITIAL GUESS: MODEL POTENTIAL
------------------------------
Loading Hartree-Fock densities                     ... done
Calculating cut-offs                               ... done
Setting up the integral package                    ... done
Initializing the effective Hamiltonian             ... done
Starting the Coulomb interaction                   ... done (   0.0 sec)
Reading the grid                                   ... done
Mapping shells                                     ... done
Starting the XC term evaluation                    ... done (   0.0 sec)
  promolecular density results
     # of electrons  =     44.000019281
     EX              =    -85.122161300
     EC              =     -1.873884553
     EX+EC           =    -86.996045853
Transforming the Hamiltonian                       ... done (   0.0 sec)
Diagonalizing the Hamiltonian                      ... done (   0.0 sec)
Back transforming the eigenvectors                 ... done (   0.0 sec)
Now organizing SCF variables                       ... done
                      ------------------
                      INITIAL GUESS DONE (   0.3 sec)
                      ------------------
--------------
SCF ITERATIONS
--------------
ITER       Energy         Delta-E        Max-DP      RMS-DP      [F,P]     Damp
               ***  Starting incremental Fock matrix formation  ***
  0  -1842.9722654192   0.000000000000 0.05283416  0.00114332  0.3633050 0.7000
  1  -1843.0245325079  -0.052267088726 0.01670721  0.00049313  0.0747081 0.7000
                               ***Turning on DIIS***
  2  -1843.0435066381  -0.018974130243 0.04063090  0.00110370  0.0434433 0.0000
  3  -1843.0982141954  -0.054707557267 0.02485921  0.00041619  0.0178113 0.0000
  4  -1843.1023723684  -0.004158173016 0.02299923  0.00021397  0.0179736 0.0000
  5  -1843.1046419980  -0.002269629558 0.03014062  0.00020971  0.0181115 0.0000
  6  -1843.1069620523  -0.002320054295 0.04577735  0.00029169  0.0181663 0.0000
  7  -1843.1096927046  -0.002730652340 0.03874257  0.00025340  0.0181242 0.0000
  8  -1843.1118063377  -0.002113633065 0.03639629  0.00025547  0.0179291 0.0000
  9  -1843.1138018927  -0.001995554971 0.03529634  0.00027375  0.0176323 0.0000
 10  -1843.1158189424  -0.002017049697 0.04316434  0.00037382  0.0171886 0.0000
 11  -1843.1183764939  -0.002557551525 0.04094480  0.00032720  0.0164236 0.0000
 12  -1843.1204544263  -0.002077932402 0.05319260  0.00040228  0.0155995 0.0000
 13  -1843.1227958754  -0.002341449107 0.03338015  0.00024236  0.0145661 0.0000
 14  -1843.1241312904  -0.001335415003 0.09823021  0.00069460  0.0138760 0.0000
 15  -1843.1274577556  -0.003326465166 0.00450205  0.00005286  0.0118590 0.0000
 16  -1843.1274454997   0.000012255899 0.04074947  0.00028023  0.0119373 0.0000
 17  -1843.1286919530  -0.001246453329 0.13402448  0.00092268  0.0111627 0.0000
 18  -1843.1319231313  -0.003231178312 0.01117839  0.00009629  0.0079233 0.0000
 19  -1843.1323191453  -0.000396013968 0.10062288  0.00071002  0.0075585 0.0000
               *** Restarting incremental Fock matrix formation ***
                                   *** Resetting DIIS ***
 20  -1843.1339438902  -0.001624744958 0.00760590  0.00008618  0.0077796 0.0000
 21  -1843.1341441815  -0.000200291248 0.00448290  0.00006367  0.0083815 0.0000
 22  -1843.1342875358  -0.000143354364 0.00557132  0.00005135  0.0037828 0.0000
 23  -1843.1344016164  -0.000114080573 0.01053223  0.00008961  0.0036558 0.0000
 24  -1843.1345828284  -0.000181212022 0.01728762  0.00014544  0.0033236 0.0000
 25  -1843.1348191956  -0.000236367175 0.01168416  0.00009512  0.0026693 0.0000
 26  -1843.1349512356  -0.000132039955 0.02104783  0.00017642  0.0021616 0.0000
 27  -1843.1351116268  -0.000160391240 0.00460672  0.00004264  0.0021028 0.0000
 28  -1843.1351558679  -0.000044241114 0.01810429  0.00019609  0.0009740 0.0000
 29  -1843.1352400148  -0.000084146867 0.01585975  0.00014521  0.0003291 0.0000
 30  -1843.1352448879  -0.000004873142 0.00400960  0.00003800  0.0001930 0.0000
 31  -1843.1352575697  -0.000012681816 0.00192870  0.00001975  0.0001192 0.0000
 32  -1843.1352653924  -0.000007822679 0.00118941  0.00001131  0.0000586 0.0000
 33  -1843.1352639871   0.000001405344 0.00032667  0.00000470  0.0000300 0.0000
                 **** Energy Check signals convergence ****

               *****************************************************
               *                     SUCCESS                       *
               *           SCF CONVERGED AFTER  34 CYCLES          *
               *****************************************************


Setting up the DFT-NL grid :

General Integration Accuracy     IntAcc      ...  4.340
Radial Grid Type                 RadialGrid  ... Gauss-Chebyshev
Angular Grid (max. acc.)         AngularGrid ... Lebedev-110
Angular grid pruning method      GridPruning ... 3 (G Style)
Weight generation scheme         WeightScheme... Becke
Basis function cutoff            BFCut       ...    1.0000e-10
Integration weight cutoff        WCut        ...    1.0000e-14
Grids for H and He will be reduced by one unit

# of grid points (after initial pruning)     ...   4756 (   0.0 sec)
# of grid points (after weights+screening)   ...   4731 (   0.0 sec)
nearest neighbour list constructed           ...    0.0 sec
Grid point re-assignment to atoms done       ...    0.0 sec
Grid point division into batches done        ...    0.0 sec
Reduced shell lists constructed in    0.0 sec

Total number of grid points                  ...     4731
Total number of batches                      ...       75
Average number of points per batch           ...       63
Average number of grid points per atom       ...     2366
Average number of shells per batch           ...    22.00 (53.66%)
Average number of basis functions per batch  ...    66.80 (46.71%)
Average number of large shells per batch     ...    15.20 (69.09%)
Average number of large basis fcns per batch ...    39.20 (58.68%)
Maximum spatial batch extension              ...  18.98, 28.73, 16.15 au
Average spatial batch extension              ...   0.95,  1.29,  0.86 au

Final grid set up in    0.0 sec

-------------------------------------------------------------------------------
                         DFT-NL dispersion correction                          
-------------------------------------------------------------------------------

SC Energy -1843.135263231 
NL    Energy 0.184695302 
SC+NL Energy -1842.950567929 
NL done in    0.0 sec
-------------------------------------------------------------------------------

----------------
TOTAL SCF ENERGY
----------------

Total Energy       :        -1842.95056793 Eh          -50149.23449 eV

Components:
Nuclear Repulsion  :          116.22582799 Eh            3162.66557 eV
Electronic Energy  :        -1959.17639592 Eh          -53311.90006 eV
One Electron Energy:        -2785.33264715 Eh          -75792.75456 eV
Two Electron Energy:          826.15625124 Eh           22480.85450 eV

Virial components:
Potential Energy   :        -3683.29075334 Eh         -100227.43686 eV
Kinetic Energy     :         1840.34018541 Eh           50078.20237 eV
Virial Ratio       :            2.00141842


DFT components:
N(Alpha)           :       23.000002974026 electrons
N(Beta)            :       21.000002910799 electrons
N(Total)           :       44.000005884825 electrons
E(X)               :      -66.702787932068 Eh       
E(C)               :       -2.176033198984 Eh       
NL Energy, E(C,NL) :        0.184695302487 Eh       
E(XC)              :      -68.694125828564 Eh       
DFET-embed. en.    :        0.000000000000 Eh       

---------------
SCF CONVERGENCE
---------------

  Last Energy change         ...    7.5584e-07  Tolerance :   1.0000e-06
  Last MAX-Density change    ...    9.2816e-05  Tolerance :   1.0000e-05
  Last RMS-Density change    ...    1.3729e-06  Tolerance :   1.0000e-06
  Last DIIS Error            ...    9.8398e-06  Tolerance :   1.0000e-06

             **** THE GBW FILE WAS UPDATED (39_CoCl.gbw) ****
             **** DENSITY FILE WAS UPDATED (39_CoCl.scfp) ****
             **** ENERGY FILE WAS UPDATED (39_CoCl.en.tmp) ****
----------------------
UHF SPIN CONTAMINATION
----------------------

Warning: in a DFT calculation there is little theoretical justification to 
         calculate <S**2> as in Hartree-Fock theory. We will do it anyways
         but you should keep in mind that the values have only limited relevance

Expectation value of <S**2>     :     2.033814
Ideal value S*(S+1) for S=1.0   :     2.000000
Deviation                       :     0.033814

             **** THE GBW FILE WAS UPDATED (39_CoCl.gbw) ****
             **** DENSITY FILE WAS UPDATED (39_CoCl.scfp) ****
----------------
ORBITAL ENERGIES
----------------
                 SPIN UP ORBITALS
  NO   OCC          E(Eh)            E(eV) 
   0   1.0000    -278.014686     -7565.1642 
   1   1.0000    -101.837981     -2771.1523 
   2   1.0000     -33.071262      -899.9148 
   3   1.0000     -28.621255      -778.8240 
   4   1.0000     -28.613031      -778.6002 
   5   1.0000     -28.612993      -778.5991 
   6   1.0000      -9.595389      -261.1038 
   7   1.0000      -7.296678      -198.5527 
   8   1.0000      -7.294356      -198.4895 
   9   1.0000      -7.293531      -198.4671 
  10   1.0000      -3.908631      -106.3592 
  11   1.0000      -2.577214       -70.1296 
  12   1.0000      -2.570110       -69.9363 
  13   1.0000      -2.563427       -69.7544 
  14   1.0000      -0.880051       -23.9474 
  15   1.0000      -0.460820       -12.5395 
  16   1.0000      -0.451690       -12.2911 
  17   1.0000      -0.429329       -11.6826 
  18   1.0000      -0.424086       -11.5400 
  19   1.0000      -0.400582       -10.9004 
  20   1.0000      -0.366669        -9.9776 
  21   1.0000      -0.362818        -9.8728 
  22   1.0000      -0.355343        -9.6694 
  23   0.0000      -0.053019        -1.4427 
  24   0.0000       0.008749         0.2381 
  25   0.0000       0.009013         0.2453 
  26   0.0000       0.019489         0.5303 
  27   0.0000       0.022442         0.6107 
  28   0.0000       0.063204         1.7199 
  29   0.0000       0.063401         1.7252 
  30   0.0000       0.080065         2.1787 
  31   0.0000       0.083522         2.2727 
  32   0.0000       0.083744         2.2788 
  33   0.0000       0.104005         2.8301 
  34   0.0000       0.104314         2.8385 
  35   0.0000       0.104381         2.8404 
  36   0.0000       0.146730         3.9927 
  37   0.0000       0.146911         3.9976 
  38   0.0000       0.147653         4.0178 
  39   0.0000       0.157872         4.2959 
  40   0.0000       0.243428         6.6240 
  41   0.0000       0.244247         6.6463 
  42   0.0000       0.302031         8.2187 
  43   0.0000       0.312732         8.5099 
  44   0.0000       0.333631         9.0786 
  45   0.0000       0.334249         9.0954 
  46   0.0000       0.369188        10.0461 
  47   0.0000       0.371408        10.1065 
  48   0.0000       0.386206        10.5092 
  49   0.0000       0.386752        10.5241 
  50   0.0000       0.428326        11.6553 
  51   0.0000       0.466253        12.6874 
  52   0.0000       0.466539        12.6952 
  53   0.0000       0.519583        14.1386 
  54   0.0000       0.621607        16.9148 
  55   0.0000       0.660926        17.9847 
  56   0.0000       0.660999        17.9867 
  57   0.0000       0.812197        22.1010 
  58   0.0000       0.851962        23.1831 
  59   0.0000       0.853023        23.2119 
  60   0.0000       0.861201        23.4345 
  61   0.0000       0.861239        23.4355 
  62   0.0000       0.884436        24.0667 
  63   0.0000       0.922416        25.1002 
  64   0.0000       0.923898        25.1406 
  65   0.0000       1.011593        27.5268 
  66   0.0000       1.011944        27.5364 
  67   0.0000       1.038365        28.2553 
  68   0.0000       1.039239        28.2791 
  69   0.0000       1.053380        28.6639 
  70   0.0000       1.164325        31.6829 
  71   0.0000       1.164875        31.6979 
  72   0.0000       1.210680        32.9443 
  73   0.0000       1.214717        33.0541 
  74   0.0000       1.240143        33.7460 
  75   0.0000       1.292671        35.1754 
  76   0.0000       1.306566        35.5535 
  77   0.0000       1.309433        35.6315 
  78   0.0000       1.313358        35.7383 
  79   0.0000       1.317382        35.8478 
  80   0.0000       1.409361        38.3507 
  81   0.0000       1.413223        38.4558 
  82   0.0000       1.592266        43.3278 
  83   0.0000       1.775047        48.3015 
  84   0.0000       1.779024        48.4097 
  85   0.0000       2.084456        56.7209 
  86   0.0000       2.328968        63.3745 
  87   0.0000       2.329005        63.3754 
  88   0.0000       2.449630        66.6578 
  89   0.0000       2.451634        66.7123 
  90   0.0000       2.512169        68.3596 
  91   0.0000       2.538686        69.0812 
  92   0.0000       2.539868        69.1133 
  93   0.0000       2.850048        77.5537 
  94   0.0000       2.850048        77.5538 
  95   0.0000       2.890249        78.6477 
  96   0.0000       2.890531        78.6553 
  97   0.0000       2.927556        79.6628 
  98   0.0000       2.928883        79.6990 
  99   0.0000       2.933891        79.8352 
 100   0.0000       3.041650        82.7675 
 101   0.0000       3.249612        88.4265 
 102   0.0000       3.250843        88.4599 
 103   0.0000       3.294450        89.6465 
 104   0.0000       3.306423        89.9724 
 105   0.0000       3.343815        90.9898 
 106   0.0000       3.394266        92.3627 
 107   0.0000       3.407208        92.7148 
 108   0.0000       3.498478        95.1984 
 109   0.0000       3.502406        95.3053 
 110   0.0000       3.563698        96.9731 
 111   0.0000       3.920948       106.6944 
 112   0.0000       4.123224       112.1986 
 113   0.0000       4.123513       112.2065 
 114   0.0000       4.125512       112.2609 
 115   0.0000       4.126470       112.2870 
 116   0.0000       4.161964       113.2528 
 117   0.0000       4.168300       113.4252 
 118   0.0000       4.332845       117.9027 
 119   0.0000       4.340713       118.1168 
 120   0.0000       4.502911       122.5304 
 121   0.0000       5.243483       142.6824 
 122   0.0000       5.267467       143.3351 
 123   0.0000       5.461313       148.6099 
 124   0.0000       5.490491       149.4039 
 125   0.0000       6.080406       165.4563 
 126   0.0000       6.609665       179.8581 
 127   0.0000      10.571552       287.6665 
 128   0.0000      10.573746       287.7263 
 129   0.0000      10.586254       288.0666 
 130   0.0000      10.607051       288.6325 
 131   0.0000      10.645473       289.6780 
 132   0.0000      10.680961       290.6437 
 133   0.0000      10.708519       291.3936 
 134   0.0000      11.639164       316.7177 
 135   0.0000      11.640890       316.7647 
 136   0.0000      11.641087       316.7701 
 137   0.0000      11.642814       316.8171 
 138   0.0000      11.660366       317.2947 
 139   0.0000      11.675041       317.6940 
 140   0.0000      11.734974       319.3249 
 141   0.0000      11.760245       320.0125 
 142   0.0000      11.868276       322.9522 

                 SPIN DOWN ORBITALS
  NO   OCC          E(Eh)            E(eV) 
   0   1.0000    -278.013854     -7565.1416 
   1   1.0000    -101.837778     -2771.1468 
   2   1.0000     -33.020654      -898.5377 
   3   1.0000     -28.579149      -777.6782 
   4   1.0000     -28.574574      -777.5537 
   5   1.0000     -28.574331      -777.5471 
   6   1.0000      -9.595202      -261.0987 
   7   1.0000      -7.296682      -198.5528 
   8   1.0000      -7.293508      -198.4664 
   9   1.0000      -7.293419      -198.4640 
  10   1.0000      -3.809643      -103.6657 
  11   1.0000      -2.465265       -67.0833 
  12   1.0000      -2.460203       -66.9455 
  13   1.0000      -2.458811       -66.9076 
  14   1.0000      -0.878059       -23.8932 
  15   1.0000      -0.436752       -11.8846 
  16   1.0000      -0.408016       -11.1027 
  17   1.0000      -0.387948       -10.5566 
  18   1.0000      -0.354218        -9.6388 
  19   1.0000      -0.327444        -8.9102 
  20   1.0000      -0.325333        -8.8528 
  21   0.0000      -0.048732        -1.3261 
  22   0.0000       0.000012         0.0003 
  23   0.0000       0.013929         0.3790 
  24   0.0000       0.015528         0.4225 
  25   0.0000       0.023303         0.6341 
  26   0.0000       0.052284         1.4227 
  27   0.0000       0.052705         1.4342 
  28   0.0000       0.070165         1.9093 
  29   0.0000       0.081694         2.2230 
  30   0.0000       0.082851         2.2545 
  31   0.0000       0.093365         2.5406 
  32   0.0000       0.099204         2.6995 
  33   0.0000       0.109235         2.9724 
  34   0.0000       0.110993         3.0203 
  35   0.0000       0.113064         3.0766 
  36   0.0000       0.148388         4.0379 
  37   0.0000       0.149203         4.0600 
  38   0.0000       0.150223         4.0878 
  39   0.0000       0.159261         4.3337 
  40   0.0000       0.246839         6.7168 
  41   0.0000       0.248862         6.7719 
  42   0.0000       0.302473         8.2307 
  43   0.0000       0.311780         8.4840 
  44   0.0000       0.338476         9.2104 
  45   0.0000       0.343742         9.3537 
  46   0.0000       0.379564        10.3285 
  47   0.0000       0.394122        10.7246 
  48   0.0000       0.395090        10.7510 
  49   0.0000       0.400933        10.9099 
  50   0.0000       0.434477        11.8227 
  51   0.0000       0.465963        12.6795 
  52   0.0000       0.466640        12.6979 
  53   0.0000       0.520361        14.1598 
  54   0.0000       0.630181        17.1481 
  55   0.0000       0.661149        17.9908 
  56   0.0000       0.661609        18.0033 
  57   0.0000       0.817626        22.2487 
  58   0.0000       0.855970        23.2921 
  59   0.0000       0.859253        23.3815 
  60   0.0000       0.862101        23.4590 
  61   0.0000       0.862220        23.4622 
  62   0.0000       0.882944        24.0261 
  63   0.0000       0.930457        25.3190 
  64   0.0000       0.933992        25.4152 
  65   0.0000       1.012452        27.5502 
  66   0.0000       1.013116        27.5683 
  67   0.0000       1.033037        28.1104 
  68   0.0000       1.039125        28.2760 
  69   0.0000       1.060429        28.8558 
  70   0.0000       1.161170        31.5971 
  71   0.0000       1.164921        31.6991 
  72   0.0000       1.221330        33.2341 
  73   0.0000       1.231383        33.5076 
  74   0.0000       1.239100        33.7176 
  75   0.0000       1.295049        35.2401 
  76   0.0000       1.304443        35.4957 
  77   0.0000       1.304937        35.5091 
  78   0.0000       1.324172        36.0326 
  79   0.0000       1.331079        36.2205 
  80   0.0000       1.419611        38.6296 
  81   0.0000       1.430582        38.9281 
  82   0.0000       1.597914        43.4814 
  83   0.0000       1.784664        48.5632 
  84   0.0000       1.795137        48.8482 
  85   0.0000       2.094072        56.9826 
  86   0.0000       2.330861        63.4259 
  87   0.0000       2.330917        63.4275 
  88   0.0000       2.452350        66.7318 
  89   0.0000       2.453479        66.7625 
  90   0.0000       2.513204        68.3878 
  91   0.0000       2.540841        69.1398 
  92   0.0000       2.541615        69.1608 
  93   0.0000       2.851789        77.6011 
  94   0.0000       2.851805        77.6016 
  95   0.0000       2.891043        78.6693 
  96   0.0000       2.891103        78.6709 
  97   0.0000       2.928234        79.6813 
  98   0.0000       2.928466        79.6876 
  99   0.0000       2.936688        79.9114 
 100   0.0000       3.065030        83.4037 
 101   0.0000       3.296892        89.7130 
 102   0.0000       3.299599        89.7867 
 103   0.0000       3.346160        91.0537 
 104   0.0000       3.362267        91.4919 
 105   0.0000       3.399481        92.5046 
 106   0.0000       3.437946        93.5513 
 107   0.0000       3.452894        93.9580 
 108   0.0000       3.558600        96.8344 
 109   0.0000       3.559834        96.8680 
 110   0.0000       3.600504        97.9747 
 111   0.0000       3.955799       107.6428 
 112   0.0000       4.139898       112.6524 
 113   0.0000       4.146342       112.8277 
 114   0.0000       4.148776       112.8939 
 115   0.0000       4.149042       112.9012 
 116   0.0000       4.177369       113.6720 
 117   0.0000       4.184981       113.8791 
 118   0.0000       4.353658       118.4691 
 119   0.0000       4.361077       118.6709 
 120   0.0000       4.534459       123.3889 
 121   0.0000       5.313363       144.5840 
 122   0.0000       5.363814       145.9568 
 123   0.0000       5.537989       150.6963 
 124   0.0000       5.589292       152.0924 
 125   0.0000       6.088357       165.6726 
 126   0.0000       6.661863       181.2785 
 127   0.0000      10.667793       290.2854 
 128   0.0000      10.676731       290.5286 
 129   0.0000      10.695936       291.0512 
 130   0.0000      10.723246       291.7944 
 131   0.0000      10.756887       292.7098 
 132   0.0000      10.774545       293.1903 
 133   0.0000      10.800223       293.8890 
 134   0.0000      11.715547       318.7962 
 135   0.0000      11.718371       318.8731 
 136   0.0000      11.719097       318.8928 
 137   0.0000      11.723506       319.0128 
 138   0.0000      11.735222       319.3316 
 139   0.0000      11.753971       319.8418 
 140   0.0000      11.812048       321.4222 
 141   0.0000      11.819875       321.6352 
 142   0.0000      11.934881       324.7646 

                    ********************************
                    * MULLIKEN POPULATION ANALYSIS *
                    ********************************

--------------------------------------------
MULLIKEN ATOMIC CHARGES AND SPIN POPULATIONS
--------------------------------------------
   0 Co:    0.492058    1.961654
   1 Cl:   -0.492058    0.038346
Sum of atomic charges         :   -0.0000000
Sum of atomic spin populations:    2.0000000

-----------------------------------------------------
MULLIKEN REDUCED ORBITAL CHARGES AND SPIN POPULATIONS
-----------------------------------------------------
CHARGE
  0 Cos       :     6.454305  s :     6.454305
      pz      :     4.088844  p :    12.180911
      px      :     4.046172
      py      :     4.045895
      dz2     :     1.669889  d :     7.860616
      dxz     :     1.525410
      dyz     :     1.496979
      dx2y2   :     1.998018
      dxy     :     1.170320
      f0      :     0.003917  f :     0.011779
      f+1     :     0.003812
      f-1     :     0.003805
      f+2     :     0.000095
      f-2     :     0.000095
      f+3     :     0.000026
      f-3     :     0.000028
      g0      :     0.000131  g :     0.000331
      g+1     :     0.000085
      g-1     :     0.000086
      g+2     :     0.000003
      g-2     :     0.000011
      g+3     :     0.000003
      g-3     :     0.000002
      g+4     :     0.000008
      g-4     :     0.000002
  1 Cls       :     5.933795  s :     5.933795
      pz      :     3.670264  p :    11.529508
      px      :     3.930144
      py      :     3.929101
      dz2     :     0.008245  d :     0.025063
      dxz     :     0.007948
      dyz     :     0.007885
      dx2y2   :     0.000657
      dxy     :     0.000327
      f0      :     0.000318  f :     0.003691
      f+1     :     0.001319
      f-1     :     0.001299
      f+2     :     0.000485
      f-2     :     0.000270
      f+3     :     0.000000
      f-3     :     0.000000

SPIN
  0 Cos       :    -0.079891  s :    -0.079891
      pz      :     0.004131  p :     0.008432
      px      :     0.002059
      py      :     0.002242
      dz2     :     0.237569  d :     2.032516
      dxz     :     0.468335
      dyz     :     0.496916
      dx2y2   :     0.000991
      dxy     :     0.828704
      f0      :     0.000318  f :     0.000617
      f+1     :     0.000167
      f-1     :     0.000174
      f+2     :    -0.000003
      f-2     :     0.000003
      f+3     :    -0.000020
      f-3     :    -0.000022
      g0      :    -0.000012  g :    -0.000020
      g+1     :    -0.000004
      g-1     :    -0.000004
      g+2     :     0.000002
      g-2     :    -0.000004
      g+3     :     0.000002
      g-3     :     0.000002
      g+4     :    -0.000001
      g-4     :    -0.000001
  1 Cls       :     0.001211  s :     0.001211
      pz      :     0.006634  p :     0.037397
      px      :     0.014873
      py      :     0.015889
      dz2     :     0.000378  d :    -0.000309
      dxz     :    -0.000313
      dyz     :    -0.000273
      dx2y2   :    -0.000190
      dxy     :     0.000087
      f0      :     0.000009  f :     0.000048
      f+1     :    -0.000019
      f-1     :    -0.000005
      f+2     :    -0.000059
      f-2     :     0.000122
      f+3     :     0.000000
      f-3     :     0.000000


                     *******************************
                     * LOEWDIN POPULATION ANALYSIS *
                     *******************************

-------------------------------------------
LOEWDIN ATOMIC CHARGES AND SPIN POPULATIONS
-------------------------------------------
   0 Co:    0.080489    1.958953
   1 Cl:   -0.080489    0.041047

----------------------------------------------------
LOEWDIN REDUCED ORBITAL CHARGES AND SPIN POPULATIONS
----------------------------------------------------
CHARGE
  0 Cos       :     6.389841  s :     6.389841
      pz      :     4.211846  p :    12.385830
      px      :     4.087311
      py      :     4.086672
      dz2     :     1.774095  d :     8.039768
      dxz     :     1.567605
      dyz     :     1.540260
      dx2y2   :     1.991028
      dxy     :     1.166780
      f0      :     0.040618  f :     0.101793
      f+1     :     0.030378
      f-1     :     0.030296
      f+2     :     0.000266
      f-2     :     0.000181
      f+3     :     0.000026
      f-3     :     0.000028
      g0      :     0.001125  g :     0.002280
      g+1     :     0.000565
      g-1     :     0.000564
      g+2     :     0.000002
      g-2     :     0.000010
      g+3     :     0.000003
      g-3     :     0.000002
      g+4     :     0.000008
      g-4     :     0.000002
  1 Cls       :     5.607378  s :     5.607378
      pz      :     3.655755  p :    11.193640
      px      :     3.769365
      py      :     3.768520
      dz2     :     0.100781  d :     0.173229
      dxz     :     0.033763
      dyz     :     0.033239
      dx2y2   :     0.003663
      dxy     :     0.001783
      f0      :     0.048269  f :     0.106242
      f+1     :     0.025906
      f-1     :     0.025499
      f+2     :     0.004298
      f-2     :     0.002271
      f+3     :     0.000000
      f-3     :     0.000000

SPIN
  0 Cos       :    -0.060515  s :    -0.060515
      pz      :     0.011288  p :     0.021285
      px      :     0.004767
      py      :     0.005230
      dz2     :     0.228300  d :     1.995559
      dxz     :     0.455803
      dyz     :     0.483423
      dx2y2   :     0.001591
      dxy     :     0.826442
      f0      :     0.000485  f :     0.002601
      f+1     :     0.001026
      f-1     :     0.001095
      f+2     :    -0.000018
      f-2     :     0.000056
      f+3     :    -0.000020
      f-3     :    -0.000022
      g0      :    -0.000014  g :     0.000023
      g+1     :     0.000019
      g-1     :     0.000020
      g+2     :    -0.000000
      g-2     :    -0.000004
      g+3     :     0.000002
      g-3     :     0.000002
      g+4     :    -0.000001
      g-4     :    -0.000001
  1 Cls       :    -0.003843  s :    -0.003843
      pz      :    -0.007684  p :     0.019507
      px      :     0.013162
      py      :     0.014029
      dz2     :     0.001347  d :     0.012222
      dxz     :     0.004976
      dyz     :     0.005422
      dx2y2   :    -0.000512
      dxy     :     0.000989
      f0      :     0.000984  f :     0.013161
      f+1     :     0.005345
      f-1     :     0.005721
      f+2     :    -0.000319
      f-2     :     0.001430
      f+3     :     0.000000
      f-3     :     0.000000


                      *****************************
                      * MAYER POPULATION ANALYSIS *
                      *****************************

  NA   - Mulliken gross atomic population
  ZA   - Total nuclear charge
  QA   - Mulliken gross atomic charge
  VA   - Mayer's total valence
  BVA  - Mayer's bonded valence
  FA   - Mayer's free valence

  ATOM       NA         ZA         QA         VA         BVA        FA
  0 Co    26.5079    27.0000     0.4921     3.0378     1.0492     1.9886
  1 Cl    17.4921    17.0000    -0.4921     1.0522     1.0492     0.0030

  Mayer bond orders larger than 0.100000
B(  0-Co,  1-Cl) :   1.0492 

-------
TIMINGS
-------

Total SCF time: 0 days 0 hours 10 min 11 sec 

Total time                  ....     611.392 sec
Sum of individual times     ....     611.008 sec  ( 99.9%)

Fock matrix formation       ....     610.457 sec  ( 99.8%)
  XC integration            ....       1.223 sec  (  0.2% of F)
    Basis function eval.    ....       0.169 sec  ( 13.8% of XC)
    Density eval.           ....       0.184 sec  ( 15.1% of XC)
    XC-Functional eval.     ....       0.043 sec  (  3.5% of XC)
    XC-Potential eval.      ....       0.519 sec  ( 42.4% of XC)
Diagonalization             ....       0.181 sec  (  0.0%)
Density matrix formation    ....       0.022 sec  (  0.0%)
Population analysis         ....       0.007 sec  (  0.0%)
Initial guess               ....       0.104 sec  (  0.0%)
Orbital Transformation      ....       0.000 sec  (  0.0%)
Orbital Orthonormalization  ....       0.000 sec  (  0.0%)
DIIS solution               ....       0.066 sec  (  0.0%)
Grid generation             ....       0.171 sec  (  0.0%)

-------------------------   --------------------
FINAL SINGLE POINT ENERGY     -1842.950567928744
-------------------------   --------------------


                            ***************************************
                            *     ORCA property calculations      *
                            ***************************************

                                    ---------------------
                                    Active property flags
                                    ---------------------
   (+) Dipole Moment


------------------------------------------------------------------------------
                       ORCA ELECTRIC PROPERTIES CALCULATION
------------------------------------------------------------------------------

Dipole Moment Calculation                       ... on
Quadrupole Moment Calculation                   ... off
Polarizability Calculation                      ... off
GBWName                                         ... 39_CoCl.gbw
Electron density file                           ... 39_CoCl.scfp
The origin for moment calculation is the CENTER OF MASS  = ( 0.000000,  0.000000  1.398559)

-------------
DIPOLE MOMENT
-------------
                                X             Y             Z
Electronic contribution:     -0.00000       0.00000      -3.97909
Nuclear contribution   :      0.00000       0.00000       1.86529
                        -----------------------------------------
Total Dipole Moment    :     -0.00000       0.00000      -2.11380
                        -----------------------------------------
Magnitude (a.u.)       :      2.11380
Magnitude (Debye)      :      5.37284



--------------------
Rotational spectrum 
--------------------
 
Rotational constants in cm-1:     0.000000     0.174373     0.174373 
Rotational constants in MHz :     0.000000  5227.567081  5227.567081 

 Dipole components along the rotational axes: 
x,y,z [a.u.] :    -2.113796     0.000000    -0.000000 
x,y,z [Debye]:    -5.372842     0.000001    -0.000000 

 

Timings for individual modules:

Sum of individual times         ...      615.225 sec (=  10.254 min)
GTO integral calculation        ...        3.335 sec (=   0.056 min)   0.5 %
SCF iterations                  ...      611.891 sec (=  10.198 min)  99.5 %
                             ****ORCA TERMINATED NORMALLY****
TOTAL RUN TIME: 0 days 0 hours 10 minutes 15 seconds 832 msec
