
                                 *****************
                                 * O   R   C   A *
                                 *****************

           --- An Ab Initio, DFT and Semiempirical electronic structure package ---

                  #######################################################
                  #                        -***-                        #
                  #          Department of theory and spectroscopy      #
                  #               Directorship: Frank Neese             #
                  #        Max Planck Institute fuer Kohlenforschung    #
                  #                Kaiser Wilhelm Platz 1               #
                  #                 D-45470 Muelheim/Ruhr               #
                  #                      Germany                        #
                  #                                                     #
                  #                  All rights reserved                #
                  #                        -***-                        #
                  #######################################################


                         Program Version 4.2.0 -  RELEASE  -


 With contributions from (in alphabetic order):
   Daniel Aravena         : Magnetic Suceptibility
   Michael Atanasov       : Ab Initio Ligand Field Theory (pilot matlab implementation)
   Alexander A. Auer      : GIAO ZORA, VPT2
   Ute Becker             : Parallelization
   Giovanni Bistoni       : ED, misc. LED, open-shell LED, HFLED
   Martin Brehm           : Molecular dynamics
   Dmytro Bykov           : SCF Hessian
   Vijay G. Chilkuri      : MRCI spin determinant printing, contributions to CSF-ICE
   Dipayan Datta          : RHF DLPNO-CCSD density
   Achintya Kumar Dutta   : EOM-CC, STEOM-CC
   Dmitry Ganyushin       : Spin-Orbit,Spin-Spin,Magnetic field MRCI
   Miquel Garcia          : C-PCM Hessian, Gaussian charge scheme
   Yang Guo               : DLPNO-NEVPT2, CIM, IAO-localization
   Andreas Hansen         : Spin unrestricted coupled pair/coupled cluster methods
   Benjamin Helmich-Paris : CASSCF linear response (MC-RPA)
   Lee Huntington         : MR-EOM, pCC
   Robert Izsak           : Overlap fitted RIJCOSX, COSX-SCS-MP3, EOM
   Christian Kollmar      : KDIIS, OOCD, Brueckner-CCSD(T), CCSD density
   Simone Kossmann        : Meta GGA functionals, TD-DFT gradient, OOMP2, MP2 Hessian
   Martin Krupicka        : AUTO-CI
   Lucas Lang             : DCDCAS
   Dagmar Lenk            : GEPOL surface, SMD
   Dimitrios Liakos       : Extrapolation schemes; Compound Job, initial MDCI parallelization
   Dimitrios Manganas     : Further ROCIS development; embedding schemes
   Dimitrios Pantazis     : SARC Basis sets
   Taras Petrenko         : DFT Hessian,TD-DFT gradient, ASA, ECA, R-Raman, ABS, FL, XAS/XES, NRVS
   Peter Pinski           : DLPNO-MP2, DLPNO-MP2 Gradient
   Christoph Reimann      : Effective Core Potentials
   Marius Retegan         : Local ZFS, SOC
   Christoph Riplinger    : Optimizer, TS searches, QM/MM, DLPNO-CCSD(T), (RO)-DLPNO pert. Triples
   Tobias Risthaus        : Range-separated hybrids, TD-DFT gradient, RPA, STAB
   Michael Roemelt        : Original ROCIS implementation
   Masaaki Saitow         : Open-shell DLPNO-CCSD energy and density
   Barbara Sandhoefer     : DKH picture change effects
   Avijit Sen             : IP-ROCIS
   Kantharuban Sivalingam : CASSCF convergence, NEVPT2, FIC-MRCI
   Bernardo de Souza      : ESD, SOC TD-DFT
   Georgi Stoychev        : AutoAux, RI-MP2 NMR
   Willem Van den Heuvel  : Paramagnetic NMR
   Boris Wezisla          : Elementary symmetry handling
   Frank Wennmohs         : Technical directorship


 We gratefully acknowledge several colleagues who have allowed us to
 interface, adapt or use parts of their codes:
   Stefan Grimme, W. Hujo, H. Kruse,             : VdW corrections, initial TS optimization,
                  C. Bannwarth                     DFT functionals, gCP, sTDA/sTD-DF
   Ed Valeev, F. Pavosevic, A. Kumar             : LibInt (2-el integral package), F12 methods
   Garnet Chan, S. Sharma, J. Yang, R. Olivares  : DMRG
   Ulf Ekstrom                                   : XCFun DFT Library
   Mihaly Kallay                                 : mrcc  (arbitrary order and MRCC methods)
   Andreas Klamt, Michael Diedenhofen            : otool_cosmo (COSMO solvation model)
   Jiri Pittner, Ondrej Demel                    : Mk-CCSD
   Frank Weinhold                                : gennbo (NPA and NBO analysis)
   Christopher J. Cramer and Donald G. Truhlar   : smd solvation model
   Lars Goerigk                                  : TD-DFT with DH, B97 family of functionals
   V. Asgeirsson, H. Jonsson                     : NEB implementation
   FAccTs GmbH                                   : IRC, NEB, NEB-TS, Multilevel, MM, QM/MM, CI optimization
   S Lehtola, MJT Oliveira, MAL Marques          : LibXC Library


 Your calculation uses the libint2 library for the computation of 2-el integrals
 For citations please refer to: http://libint.valeyev.net

 Your ORCA version has been built with support for libXC version: 4.2.3
 For citations please refer to: https://tddft.org/programs/libxc/

 This ORCA versions uses:
   CBLAS   interface :  Fast vector & matrix operations
   LAPACKE interface :  Fast linear algebra routines
   SCALAPACK package :  Parallel linear algebra routines


Your calculation utilizes the DFT-NL dispersion correction.
Cite in your paper:
Vydrov, O. A.; Van Voorhis, T. J. Chem. Phys. 2010, 133, 244103
Hujo, W.; Grimme, S. J. Chem. Theory Comput. 2011, 7, 3866 
   

----- Orbital basis set information -----
Your calculation utilizes the basis: aug-cc-pVTZ 
    H, B-Ne : Obtained from the ccRepo (grant-hill.group.shef.ac.uk/ccrepo) Feb. 2017
              R. A. Kendall, T. H. Dunning, Jr., R. J. Harrison, J. Chem. Phys. 96, 6796 (1992)
         He : Obtained from the ccRepo (grant-hill.group.shef.ac.uk/ccrepo) Feb. 2017
              D. E. Woon, T. H. Dunning, Jr., J. Chem. Phys. 100, 2975 (1994)
  Li-Be, Na : Obtained from the ccRepo (grant-hill.group.shef.ac.uk/ccrepo) Feb. 2017
              B. P. Prascher, D. E. Woon, K. A. Peterson, T. H. Dunning, Jr., A. K. Wilson, Theor. Chem. Acc. 128, 69 (2011)
         Mg : Obtained from the Peterson Research Group Website (tyr0.chem.wsu.edu/~kipeters) Feb. 2017
              B. P. Prascher, D. E. Woon, K. A. Peterson, T. H. Dunning, Jr., A. K. Wilson, Theor. Chem. Acc. 128, 69 (2011)
      Al-Ar : Obtained from the ccRepo (grant-hill.group.shef.ac.uk/ccrepo) Feb. 2017
              D. E. Woon, T. H. Dunning, Jr., J. Chem. Phys. 98, 1358 (1993)
      Sc-Zn : Obtained from the ccRepo (grant-hill.group.shef.ac.uk/ccrepo) Feb. 2017
              N. B. Balabanov, K. A. Peterson, J. Chem. Phys. 123, 064107 (2005)
              N. B. Balabanov, K. A. Peterson, J. Chem. Phys. 125, 074110 (2006)
      Ga-Kr : Obtained from the ccRepo (grant-hill.group.shef.ac.uk/ccrepo) Feb. 2017
              A. K. Wilson, D. E. Woon, K. A. Peterson, T. H. Dunning, Jr., J. Chem. Phys. 110, 7667 (1999)
     Ag, Au : Obtained from the Peterson Research Group Website (tyr0.chem.wsu.edu/~kipeters) Feb. 2017
              K. A. Peterson, C. Puzzarini, Theor. Chem. Acc. 114, 283 (2005)

----- AuxJK basis set information -----
Your calculation utilizes the auxiliary basis: def2/JK
   H-Ba, Hf-Rn: F. Weigend, J. Comput. Chem. 29, 167 (2008).

================================================================================
                                        WARNINGS
                       Please study these warnings very carefully!
================================================================================


WARNING: your system is open-shell and RHF/RKS was chosen
  ===> : WILL SWITCH to UHF/UKS


INFO   : the flag for use of LIBINT has been found!

================================================================================
                                       INPUT FILE
================================================================================
NAME = 40_CoBr.in
|  1> #
|  2> # 40_CoBr wb97m-v/aug-cc-pvtz
|  3> #
|  4> ! wb97m-v aug-cc-pvtz def2/jk grid4 nofinalgrid
|  5> 
|  6> *xyz 0 3
|  7>   Co  0.00000000000000      0.00000000000000     -0.10327875603907
|  8>   Br  0.00000000000000      0.00000000000000      2.10327875603907
|  9> *
| 10> 
| 11> %pal
| 12> nprocs 24
| 13> end
| 14> 
| 15> 
| 16>                          ****END OF INPUT****
================================================================================

                       ****************************
                       * Single Point Calculation *
                       ****************************

---------------------------------
CARTESIAN COORDINATES (ANGSTROEM)
---------------------------------
  Co     0.000000    0.000000   -0.103279
  Br     0.000000    0.000000    2.103279

----------------------------
CARTESIAN COORDINATES (A.U.)
----------------------------
  NO LB      ZA    FRAG     MASS         X           Y           Z
   0 Co   27.0000    0    58.930    0.000000    0.000000   -0.195169
   1 Br   35.0000    0    79.900    0.000000    0.000000    3.974621

--------------------------------
INTERNAL COORDINATES (ANGSTROEM)
--------------------------------
 Co     0   0   0     0.000000000000     0.00000000     0.00000000
 Br     1   0   0     2.206557512078     0.00000000     0.00000000

---------------------------
INTERNAL COORDINATES (A.U.)
---------------------------
 Co     0   0   0     0.000000000000     0.00000000     0.00000000
 Br     1   0   0     4.169789396574     0.00000000     0.00000000

---------------------
BASIS SET INFORMATION
---------------------
There are 2 groups of distinct atoms

 Group   1 Type Co  : 116s77p23d3f2g contracted to 8s7p5d3f2g pattern {19191919191911/151515151511/77711/111/11}
 Group   2 Type Br  : 75s36p10d2f contracted to 7s6p4d2f pattern {18181818111/111111111/7111/11}

Atom   0Co   basis set group =>   1
Atom   1Br   basis set group =>   2
----------------------------------
AUXILIARY/JK BASIS SET INFORMATION
----------------------------------
There are 2 groups of distinct atoms

 Group   1 Type Co  : 19s14p12d10f7g3h1i contracted to 16s13p11d9f5g3h1i pattern {4111111111111111/2111111111111/21111111111/211111111/31111/111/1}
 Group   2 Type Br  : 20s14p13d10f7g3h contracted to 17s13p12d9f6g3h pattern {41111111111111111/2111111111111/211111111111/211111111/211111/111}

Atom   0Co   basis set group =>   1
Atom   1Br   basis set group =>   2


           ************************************************************
           *        Program running with 24 parallel MPI-processes    *
           *              working on a common directory               *
           ************************************************************
------------------------------------------------------------------------------
                           ORCA GTO INTEGRAL CALCULATION
------------------------------------------------------------------------------

                         BASIS SET STATISTICS AND STARTUP INFO

 # of primitive gaussian shells          ...  344
 # of primitive gaussian functions       ...  748
 # of contracted shells                  ...   44
 # of contracted basis functions         ...  152
 Highest angular momentum                ...    4
 Maximum contraction depth               ...   19
 Integral package used                   ... LIBINT
 Integral threshhold            Thresh   ...  1.000e-10
 Primitive cut-off              TCut     ...  1.000e-11


------------------------------ INTEGRAL EVALUATION ----------------------------


 * One electron integrals 
 Pre-screening matrix                    ... done
 Shell pair data                         ... done (   0.002 sec)



           ************************************************************
           *        Program running with 24 parallel MPI-processes    *
           *              working on a common directory               *
           ************************************************************
-------------------------------------------------------------------------------
                                 ORCA SCF
-------------------------------------------------------------------------------

------------
SCF SETTINGS
------------
Hamiltonian:
 Density Functional     Method          .... DFT(GTOs)
 Exchange Functional    Exchange        .... WB97M-V
 Correlation Functional Correlation     .... WB97M-V
 Gradients option       PostSCFGGA      .... off
 Hybrid DFT is turned on
   Fraction HF Exchange ScalHFX         ....  0.150000
   Scaling of DF-GGA-X  ScalDFX         ....  0.000000
   Scaling of DF-GGA-C  ScalDFC         ....  1.000000
   Scaling of DF-LDA-C  ScalLDAC        ....  1.000000
   Perturbative correction              ....  0.000000
   Density functional embedding theory  .... OFF
 Long-range corrected/Screened/Range-Separated Hybrid DFT is turned on
   Amount of maximum screened exact exchange              ....  0.850000
   Range separation parameter mu (erf(mu*r12)/r12)        ....  0.300000
   NL short-range parameter             ....  6.000000
   NL long-range parameter              ....  0.010000


General Settings:
 Integral files         IntName         .... 40_CoBr
 Hartree-Fock type      HFTyp           .... UHF
 Total Charge           Charge          ....    0
 Multiplicity           Mult            ....    3
 Number of Electrons    NEL             ....   62
 Basis Dimension        Dim             ....  152
 Nuclear Repulsion      ENuc            ....    226.6301508600 Eh

Convergence Acceleration:
 DIIS                   CNVDIIS         .... on
   Start iteration      DIISMaxIt       ....    12
   Startup error        DIISStart       ....  0.200000
   # of expansion vecs  DIISMaxEq       ....     5
   Bias factor          DIISBfac        ....   1.050
   Max. coefficient     DIISMaxC        ....  10.000
 Newton-Raphson         CNVNR           .... off
 SOSCF                  CNVSOSCF        .... off
 Level Shifting         CNVShift        .... on
   Level shift para.    LevelShift      ....    0.2500
   Turn off err/grad.   ShiftErr        ....    0.0010
 Zerner damping         CNVZerner       .... off
 Static damping         CNVDamp         .... on
   Fraction old density DampFac         ....    0.7000
   Max. Damping (<1)    DampMax         ....    0.9800
   Min. Damping (>=0)   DampMin         ....    0.0000
   Turn off err/grad.   DampErr         ....    0.1000
 Fernandez-Rico         CNVRico         .... off

SCF Procedure:
 Maximum # iterations   MaxIter         ....   125
 SCF integral mode      SCFMode         .... Direct
   Integral package                     .... LIBINT
 Reset frequency        DirectResetFreq ....    20
 Integral Threshold     Thresh          ....  1.000e-10 Eh
 Primitive CutOff       TCut            ....  1.000e-11 Eh

Convergence Tolerance:
 Convergence Check Mode ConvCheckMode   .... Total+1el-Energy
 Convergence forced     ConvForced      .... 0
 Energy Change          TolE            ....  1.000e-06 Eh
 1-El. energy change                    ....  1.000e-03 Eh
 DIIS Error             TolErr          ....  1.000e-06


Diagonalization of the overlap matrix:
Smallest eigenvalue                        ... 9.334e-05
Time for diagonalization                   ...    0.004 sec
Threshold for overlap eigenvalues          ... 1.000e-08
Number of eigenvalues below threshold      ... 0
Time for construction of square roots      ...    0.003 sec
Total time needed                          ...    0.008 sec

-------------------
DFT GRID GENERATION
-------------------

General Integration Accuracy     IntAcc      ...  4.670
Radial Grid Type                 RadialGrid  ... Gauss-Chebyshev
Angular Grid (max. acc.)         AngularGrid ... Lebedev-302
Angular grid pruning method      GridPruning ... 3 (G Style)
Weight generation scheme         WeightScheme... Becke
Basis function cutoff            BFCut       ...    1.0000e-10
Integration weight cutoff        WCut        ...    1.0000e-14
Grids for H and He will be reduced by one unit

# of grid points (after initial pruning)     ...  19256 (   0.0 sec)
# of grid points (after weights+screening)   ...  19228 (   0.0 sec)
nearest neighbour list constructed           ...    0.0 sec
Grid point re-assignment to atoms done       ...    0.0 sec
Grid point division into batches done        ...    0.2 sec
Reduced shell lists constructed in    0.2 sec

Total number of grid points                  ...    19228
Total number of batches                      ...      302
Average number of points per batch           ...       63
Average number of grid points per atom       ...     9614
Average number of shells per batch           ...    15.93 (36.20%)
Average number of basis functions per batch  ...    38.07 (25.05%)
Average number of large shells per batch     ...     8.64 (54.26%)
Average number of large basis fcns per batch ...    22.36 (58.72%)
Maximum spatial batch extension              ...  24.49, 24.19, 17.76 au
Average spatial batch extension              ...   0.84,  0.83,  0.67 au

Time for grid setup =    0.218 sec

------------------------------
INITIAL GUESS: MODEL POTENTIAL
------------------------------
Loading Hartree-Fock densities                     ... done
Calculating cut-offs                               ... done
Setting up the integral package                    ... done
Initializing the effective Hamiltonian             ... done
Starting the Coulomb interaction                   ... done (   0.0 sec)
Reading the grid                                   ... done
Mapping shells                                     ... done
Starting the XC term evaluation                    ... done (   0.0 sec)
  promolecular density results
     # of electrons  =     62.000026053
     EX              =   -147.031328486
     EC              =     -2.926898212
     EX+EC           =   -149.958226698
Transforming the Hamiltonian                       ... done (   0.0 sec)
Diagonalizing the Hamiltonian                      ... done (   0.0 sec)
Back transforming the eigenvectors                 ... done (   0.0 sec)
Now organizing SCF variables                       ... done
                      ------------------
                      INITIAL GUESS DONE (   0.3 sec)
                      ------------------
--------------
SCF ITERATIONS
--------------
ITER       Energy         Delta-E        Max-DP      RMS-DP      [F,P]     Damp
               ***  Starting incremental Fock matrix formation  ***
  0  -3956.8015797933   0.000000000000 0.06362250  0.00141945  0.4482039 0.7000
  1  -3956.9035156010  -0.101935807675 0.04149606  0.00057143  0.0769924 0.7000
                               ***Turning on DIIS***
  2  -3956.9358490329  -0.032333431953 0.08562942  0.00134406  0.0809558 0.0000
  3  -3957.0433938984  -0.107544865446 0.04880737  0.00083626  0.0730001 0.0000
  4  -3957.0524186611  -0.009024762751 0.02232648  0.00034572  0.0234310 0.0000
  5  -3957.0578267853  -0.005408124148 0.01756368  0.00024356  0.0144362 0.0000
  6  -3957.0602377420  -0.002410956694 0.00907517  0.00012809  0.0085103 0.0000
  7  -3957.0609026976  -0.000664955592 0.00667962  0.00009573  0.0046162 0.0000
  8  -3957.0611840097  -0.000281312150 0.00321389  0.00005125  0.0020643 0.0000
  9  -3957.0612472117  -0.000063202043 0.00238716  0.00002653  0.0016621 0.0000
 10  -3957.0612615916  -0.000014379830 0.00173509  0.00001889  0.0010739 0.0000
 11  -3957.0612652823  -0.000003690680 0.00265007  0.00002451  0.0008128 0.0000
 12  -3957.0612654918  -0.000000209535 0.00097765  0.00001262  0.0004031 0.0000
 13  -3957.0612635213   0.000001970503 0.00056778  0.00000594  0.0002918 0.0000
 14  -3957.0612621613   0.000001360015 0.00023393  0.00000278  0.0001048 0.0000
 15  -3957.0612614224   0.000000738850 0.00009093  0.00000089  0.0000201 0.0000
                 **** Energy Check signals convergence ****

               *****************************************************
               *                     SUCCESS                       *
               *           SCF CONVERGED AFTER  16 CYCLES          *
               *****************************************************


Setting up the DFT-NL grid :

General Integration Accuracy     IntAcc      ...  4.340
Radial Grid Type                 RadialGrid  ... Gauss-Chebyshev
Angular Grid (max. acc.)         AngularGrid ... Lebedev-110
Angular grid pruning method      GridPruning ... 3 (G Style)
Weight generation scheme         WeightScheme... Becke
Basis function cutoff            BFCut       ...    1.0000e-10
Integration weight cutoff        WCut        ...    1.0000e-14
Grids for H and He will be reduced by one unit

# of grid points (after initial pruning)     ...   5802 (   0.0 sec)
# of grid points (after weights+screening)   ...   5777 (   0.0 sec)
nearest neighbour list constructed           ...    0.0 sec
Grid point re-assignment to atoms done       ...    0.0 sec
Grid point division into batches done        ...    0.0 sec
Reduced shell lists constructed in    0.0 sec

Total number of grid points                  ...     5777
Total number of batches                      ...       91
Average number of points per batch           ...       63
Average number of grid points per atom       ...     2888
Average number of shells per batch           ...    23.60 (53.64%)
Average number of basis functions per batch  ...    70.00 (46.05%)
Average number of large shells per batch     ...    15.20 (64.41%)
Average number of large basis fcns per batch ...    39.20 (56.00%)
Maximum spatial batch extension              ...  18.98, 28.73, 16.15 au
Average spatial batch extension              ...   0.78,  1.06,  0.71 au

Final grid set up in    0.0 sec

-------------------------------------------------------------------------------
                         DFT-NL dispersion correction                          
-------------------------------------------------------------------------------

SC Energy -3957.061261203 
NL    Energy 0.259857423 
SC+NL Energy -3956.801403780 
NL done in    0.0 sec
-------------------------------------------------------------------------------

----------------
TOTAL SCF ENERGY
----------------

Total Energy       :        -3956.80140378 Eh         -107670.04004 eV

Components:
Nuclear Repulsion  :          226.63015086 Eh            6166.91993 eV
Electronic Energy  :        -4183.43155464 Eh         -113836.95996 eV
One Electron Energy:        -5953.94746914 Eh         -162015.14733 eV
Two Electron Energy:         1770.51591450 Eh           48178.18737 eV

Virial components:
Potential Energy   :        -7909.02280652 Eh         -215215.45191 eV
Kinetic Energy     :         3952.22140274 Eh          107545.41187 eV
Virial Ratio       :            2.00115884


DFT components:
N(Alpha)           :       32.000014927197 electrons
N(Beta)            :       30.000013594270 electrons
N(Total)           :       62.000028521467 electrons
E(X)               :     -116.644662156049 Eh       
E(C)               :       -3.432681914649 Eh       
NL Energy, E(C,NL) :        0.259857422711 Eh       
E(XC)              :     -119.817486647987 Eh       
DFET-embed. en.    :        0.000000000000 Eh       

---------------
SCF CONVERGENCE
---------------

  Last Energy change         ...    2.1937e-07  Tolerance :   1.0000e-06
  Last MAX-Density change    ...    5.4075e-05  Tolerance :   1.0000e-05
  Last RMS-Density change    ...    4.9017e-07  Tolerance :   1.0000e-06
  Last DIIS Error            ...    1.5443e-05  Tolerance :   1.0000e-06

             **** THE GBW FILE WAS UPDATED (40_CoBr.gbw) ****
             **** DENSITY FILE WAS UPDATED (40_CoBr.scfp) ****
             **** ENERGY FILE WAS UPDATED (40_CoBr.en.tmp) ****
----------------------
UHF SPIN CONTAMINATION
----------------------

Warning: in a DFT calculation there is little theoretical justification to 
         calculate <S**2> as in Hartree-Fock theory. We will do it anyways
         but you should keep in mind that the values have only limited relevance

Expectation value of <S**2>     :     2.011174
Ideal value S*(S+1) for S=1.0   :     2.000000
Deviation                       :     0.011174

             **** THE GBW FILE WAS UPDATED (40_CoBr.gbw) ****
             **** DENSITY FILE WAS UPDATED (40_CoBr.scfp) ****
----------------
ORBITAL ENERGIES
----------------
                 SPIN UP ORBITALS
  NO   OCC          E(Eh)            E(eV) 
   0   1.0000    -483.468317    -13155.8417 
   1   1.0000    -278.003496     -7564.8597 
   2   1.0000     -62.773101     -1708.1429 
   3   1.0000     -56.458873     -1536.3241 
   4   1.0000     -56.458026     -1536.3010 
   5   1.0000     -56.458026     -1536.3010 
   6   1.0000     -33.057633      -899.5439 
   7   1.0000     -28.622189      -778.8493 
   8   1.0000     -28.592570      -778.0434 
   9   1.0000     -28.592570      -778.0434 
  10   1.0000      -8.851839      -240.8708 
  11   1.0000      -6.632160      -180.4702 
  12   1.0000      -6.628459      -180.3695 
  13   1.0000      -6.628459      -180.3695 
  14   1.0000      -3.895256      -105.9953 
  15   1.0000      -2.715030       -73.8797 
  16   1.0000      -2.713708       -73.8438 
  17   1.0000      -2.713708       -73.8438 
  18   1.0000      -2.710774       -73.7639 
  19   1.0000      -2.710739       -73.7630 
  20   1.0000      -2.599936       -70.7479 
  21   1.0000      -2.535164       -68.9853 
  22   1.0000      -2.535164       -68.9853 
  23   1.0000      -0.844943       -22.9921 
  24   1.0000      -0.449985       -12.2447 
  25   1.0000      -0.442479       -12.0405 
  26   1.0000      -0.442479       -12.0405 
  27   1.0000      -0.369695       -10.0599 
  28   1.0000      -0.369691       -10.0598 
  29   1.0000      -0.360981        -9.8228 
  30   1.0000      -0.351240        -9.5577 
  31   1.0000      -0.351240        -9.5577 
  32   0.0000      -0.052480        -1.4281 
  33   0.0000       0.009854         0.2681 
  34   0.0000       0.009854         0.2681 
  35   0.0000       0.019951         0.5429 
  36   0.0000       0.023258         0.6329 
  37   0.0000       0.063787         1.7357 
  38   0.0000       0.063787         1.7357 
  39   0.0000       0.067621         1.8401 
  40   0.0000       0.084218         2.2917 
  41   0.0000       0.084218         2.2917 
  42   0.0000       0.100234         2.7275 
  43   0.0000       0.105569         2.8727 
  44   0.0000       0.105569         2.8727 
  45   0.0000       0.118883         3.2350 
  46   0.0000       0.118883         3.2350 
  47   0.0000       0.147561         4.0153 
  48   0.0000       0.152844         4.1591 
  49   0.0000       0.232694         6.3319 
  50   0.0000       0.242573         6.6008 
  51   0.0000       0.242574         6.6008 
  52   0.0000       0.279291         7.5999 
  53   0.0000       0.279291         7.5999 
  54   0.0000       0.291906         7.9432 
  55   0.0000       0.345219         9.3939 
  56   0.0000       0.345219         9.3939 
  57   0.0000       0.374719        10.1966 
  58   0.0000       0.374721        10.1967 
  59   0.0000       0.383444        10.4340 
  60   0.0000       0.425550        11.5798 
  61   0.0000       0.425550        11.5798 
  62   0.0000       0.515435        14.0257 
  63   0.0000       0.520848        14.1730 
  64   0.0000       0.520848        14.1730 
  65   0.0000       0.591787        16.1033 
  66   0.0000       0.653360        17.7788 
  67   0.0000       0.728502        19.8235 
  68   0.0000       0.728507        19.8237 
  69   0.0000       0.731723        19.9112 
  70   0.0000       0.749375        20.3915 
  71   0.0000       0.749375        20.3915 
  72   0.0000       0.875838        23.8328 
  73   0.0000       0.875838        23.8328 
  74   0.0000       0.879050        23.9202 
  75   0.0000       0.879050        23.9202 
  76   0.0000       0.906597        24.6698 
  77   0.0000       0.906597        24.6698 
  78   0.0000       0.954684        25.9783 
  79   0.0000       1.044740        28.4288 
  80   0.0000       1.044740        28.4288 
  81   0.0000       1.107469        30.1358 
  82   0.0000       1.107469        30.1358 
  83   0.0000       1.126904        30.6646 
  84   0.0000       1.254116        34.1262 
  85   0.0000       1.254122        34.1264 
  86   0.0000       1.294178        35.2164 
  87   0.0000       1.316930        35.8355 
  88   0.0000       1.316930        35.8355 
  89   0.0000       1.378416        37.5086 
  90   0.0000       1.378421        37.5088 
  91   0.0000       1.413240        38.4562 
  92   0.0000       1.609033        43.7840 
  93   0.0000       1.609033        43.7840 
  94   0.0000       1.831471        49.8369 
  95   0.0000       1.999442        54.4076 
  96   0.0000       1.999442        54.4076 
  97   0.0000       2.109453        57.4011 
  98   0.0000       2.109484        57.4020 
  99   0.0000       2.132204        58.0202 
 100   0.0000       2.132204        58.0202 
 101   0.0000       2.140420        58.2438 
 102   0.0000       2.161852        58.8270 
 103   0.0000       2.161868        58.8274 
 104   0.0000       2.204964        60.0001 
 105   0.0000       2.204964        60.0001 
 106   0.0000       2.256304        61.3971 
 107   0.0000       2.256304        61.3971 
 108   0.0000       2.312350        62.9222 
 109   0.0000       2.715766        73.8998 
 110   0.0000       3.284945        89.3879 
 111   0.0000       3.284945        89.3879 
 112   0.0000       3.295502        89.6752 
 113   0.0000       3.295512        89.6754 
 114   0.0000       3.339125        90.8622 
 115   0.0000       3.390708        92.2658 
 116   0.0000       3.390708        92.2658 
 117   0.0000       3.454322        93.9969 
 118   0.0000       3.519280        95.7645 
 119   0.0000       3.519280        95.7645 
 120   0.0000       3.910411       106.4077 
 121   0.0000       4.074185       110.8642 
 122   0.0000       4.127120       112.3046 
 123   0.0000       4.127120       112.3046 
 124   0.0000       4.141160       112.6867 
 125   0.0000       4.141179       112.6872 
 126   0.0000       4.156544       113.1053 
 127   0.0000       4.156639       113.1079 
 128   0.0000       4.247027       115.5675 
 129   0.0000       4.247027       115.5675 
 130   0.0000       4.657901       126.7479 
 131   0.0000       5.291323       143.9842 
 132   0.0000       5.291329       143.9844 
 133   0.0000       5.413366       147.3052 
 134   0.0000       5.413366       147.3052 
 135   0.0000       6.246330       169.9713 
 136   0.0000      10.595344       288.3140 
 137   0.0000      10.595540       288.3193 
 138   0.0000      10.634017       289.3663 
 139   0.0000      10.634017       289.3663 
 140   0.0000      10.655324       289.9461 
 141   0.0000      10.655324       289.9461 
 142   0.0000      10.692352       290.9537 
 143   0.0000      11.648876       316.9820 
 144   0.0000      11.649202       316.9909 
 145   0.0000      11.650139       317.0164 
 146   0.0000      11.650139       317.0164 
 147   0.0000      11.704247       318.4888 
 148   0.0000      11.704247       318.4888 
 149   0.0000      11.704519       318.4961 
 150   0.0000      11.704666       318.5001 
 151   0.0000      11.775288       320.4219 

                 SPIN DOWN ORBITALS
  NO   OCC          E(Eh)            E(eV) 
   0   1.0000    -483.468150    -13155.8372 
   1   1.0000    -278.002666     -7564.8371 
   2   1.0000     -62.773034     -1708.1411 
   3   1.0000     -56.458831     -1536.3229 
   4   1.0000     -56.457788     -1536.2945 
   5   1.0000     -56.457788     -1536.2945 
   6   1.0000     -33.008319      -898.2020 
   7   1.0000     -28.570623      -777.4462 
   8   1.0000     -28.560293      -777.1651 
   9   1.0000     -28.560293      -777.1651 
  10   1.0000      -8.851616      -240.8647 
  11   1.0000      -6.632108      -180.4688 
  12   1.0000      -6.628065      -180.3588 
  13   1.0000      -6.628065      -180.3588 
  14   1.0000      -3.799183      -103.3810 
  15   1.0000      -2.714866       -73.8753 
  16   1.0000      -2.713495       -73.8380 
  17   1.0000      -2.713495       -73.8380 
  18   1.0000      -2.710325       -73.7517 
  19   1.0000      -2.710291       -73.7508 
  20   1.0000      -2.460977       -66.9666 
  21   1.0000      -2.446377       -66.5693 
  22   1.0000      -2.446377       -66.5693 
  23   1.0000      -0.841821       -22.9071 
  24   1.0000      -0.428435       -11.6583 
  25   1.0000      -0.367020        -9.9871 
  26   1.0000      -0.367020        -9.9871 
  27   1.0000      -0.335664        -9.1339 
  28   1.0000      -0.315274        -8.5790 
  29   1.0000      -0.315269        -8.5789 
  30   0.0000      -0.064221        -1.7475 
  31   0.0000       0.007264         0.1977 
  32   0.0000       0.007264         0.1977 
  33   0.0000       0.017671         0.4808 
  34   0.0000       0.022560         0.6139 
  35   0.0000       0.047524         1.2932 
  36   0.0000       0.047524         1.2932 
  37   0.0000       0.066281         1.8036 
  38   0.0000       0.074253         2.0205 
  39   0.0000       0.074253         2.0205 
  40   0.0000       0.089796         2.4435 
  41   0.0000       0.089820         2.4441 
  42   0.0000       0.098258         2.6737 
  43   0.0000       0.106474         2.8973 
  44   0.0000       0.106474         2.8973 
  45   0.0000       0.120322         3.2741 
  46   0.0000       0.120322         3.2741 
  47   0.0000       0.146980         3.9995 
  48   0.0000       0.153786         4.1847 
  49   0.0000       0.231797         6.3075 
  50   0.0000       0.243595         6.6285 
  51   0.0000       0.243595         6.6286 
  52   0.0000       0.280134         7.6228 
  53   0.0000       0.280137         7.6229 
  54   0.0000       0.290849         7.9144 
  55   0.0000       0.359496         9.7824 
  56   0.0000       0.359496         9.7824 
  57   0.0000       0.382340        10.4040 
  58   0.0000       0.382343        10.4041 
  59   0.0000       0.384844        10.4721 
  60   0.0000       0.423094        11.5130 
  61   0.0000       0.423094        11.5130 
  62   0.0000       0.517818        14.0906 
  63   0.0000       0.520257        14.1569 
  64   0.0000       0.520257        14.1569 
  65   0.0000       0.597410        16.2563 
  66   0.0000       0.654502        17.8099 
  67   0.0000       0.729603        19.8535 
  68   0.0000       0.729608        19.8537 
  69   0.0000       0.735595        20.0166 
  70   0.0000       0.753942        20.5158 
  71   0.0000       0.753942        20.5158 
  72   0.0000       0.876476        23.8501 
  73   0.0000       0.876477        23.8501 
  74   0.0000       0.879359        23.9286 
  75   0.0000       0.879359        23.9286 
  76   0.0000       0.916837        24.9484 
  77   0.0000       0.916837        24.9484 
  78   0.0000       0.958007        26.0687 
  79   0.0000       1.052597        28.6426 
  80   0.0000       1.052597        28.6426 
  81   0.0000       1.103506        30.0279 
  82   0.0000       1.103506        30.0279 
  83   0.0000       1.131132        30.7797 
  84   0.0000       1.250668        34.0324 
  85   0.0000       1.250670        34.0325 
  86   0.0000       1.298860        35.3438 
  87   0.0000       1.320327        35.9279 
  88   0.0000       1.320327        35.9279 
  89   0.0000       1.393885        37.9295 
  90   0.0000       1.393892        37.9297 
  91   0.0000       1.417556        38.5737 
  92   0.0000       1.634768        44.4843 
  93   0.0000       1.634768        44.4843 
  94   0.0000       1.838816        50.0367 
  95   0.0000       2.003290        54.5123 
  96   0.0000       2.003290        54.5123 
  97   0.0000       2.111873        57.4670 
  98   0.0000       2.111915        57.4681 
  99   0.0000       2.134740        58.0892 
 100   0.0000       2.134740        58.0892 
 101   0.0000       2.142621        58.3037 
 102   0.0000       2.162454        58.8434 
 103   0.0000       2.162456        58.8434 
 104   0.0000       2.203514        59.9607 
 105   0.0000       2.203514        59.9607 
 106   0.0000       2.259406        61.4816 
 107   0.0000       2.259406        61.4816 
 108   0.0000       2.312227        62.9189 
 109   0.0000       2.738647        74.5224 
 110   0.0000       3.306784        89.9822 
 111   0.0000       3.306784        89.9822 
 112   0.0000       3.369985        91.7020 
 113   0.0000       3.369988        91.7020 
 114   0.0000       3.396438        92.4218 
 115   0.0000       3.445009        93.7435 
 116   0.0000       3.445009        93.7435 
 117   0.0000       3.486590        94.8749 
 118   0.0000       3.565173        97.0133 
 119   0.0000       3.565173        97.0133 
 120   0.0000       3.955921       107.6461 
 121   0.0000       4.086318       111.1944 
 122   0.0000       4.158937       113.1704 
 123   0.0000       4.158937       113.1704 
 124   0.0000       4.161904       113.2512 
 125   0.0000       4.162007       113.2540 
 126   0.0000       4.166341       113.3719 
 127   0.0000       4.166352       113.3722 
 128   0.0000       4.272521       116.2612 
 129   0.0000       4.272521       116.2612 
 130   0.0000       4.668831       127.0454 
 131   0.0000       5.343062       145.3921 
 132   0.0000       5.343072       145.3924 
 133   0.0000       5.538230       150.7029 
 134   0.0000       5.538230       150.7029 
 135   0.0000       6.300636       171.4490 
 136   0.0000      10.690854       290.9129 
 137   0.0000      10.690854       290.9129 
 138   0.0000      10.737120       292.1719 
 139   0.0000      10.737287       292.1764 
 140   0.0000      10.767581       293.0008 
 141   0.0000      10.767581       293.0008 
 142   0.0000      10.775578       293.2184 
 143   0.0000      11.740206       319.4672 
 144   0.0000      11.740206       319.4672 
 145   0.0000      11.740899       319.4861 
 146   0.0000      11.740949       319.4875 
 147   0.0000      11.741083       319.4911 
 148   0.0000      11.741194       319.4941 
 149   0.0000      11.776213       320.4470 
 150   0.0000      11.776213       320.4470 
 151   0.0000      11.842858       322.2606 

                    ********************************
                    * MULLIKEN POPULATION ANALYSIS *
                    ********************************

--------------------------------------------
MULLIKEN ATOMIC CHARGES AND SPIN POPULATIONS
--------------------------------------------
   0 Co:    0.463182    1.963120
   1 Br:   -0.463182    0.036880
Sum of atomic charges         :   -0.0000000
Sum of atomic spin populations:    2.0000000

-----------------------------------------------------
MULLIKEN REDUCED ORBITAL CHARGES AND SPIN POPULATIONS
-----------------------------------------------------
CHARGE
  0 Cos       :     6.365032  s :     6.365032
      pz      :     4.094048  p :    12.175578
      px      :     4.040765
      py      :     4.040765
      dz2     :     1.920281  d :     7.984858
      dxz     :     1.033931
      dyz     :     1.033931
      dx2y2   :     1.998358
      dxy     :     1.998358
      f0      :     0.003778  f :     0.010885
      f+1     :     0.003456
      f-1     :     0.003456
      f+2     :     0.000098
      f-2     :     0.000098
      f+3     :     0.000000
      f-3     :     0.000000
      g0      :     0.000205  g :     0.000465
      g+1     :     0.000099
      g-1     :     0.000099
      g+2     :     0.000031
      g-2     :     0.000031
      g+3     :     0.000000
      g-3     :     0.000000
      g+4     :     0.000000
      g-4     :     0.000000
  1 Brs       :     7.979758  s :     7.979758
      pz      :     5.628038  p :    17.456740
      px      :     5.914351
      py      :     5.914351
      dz2     :     2.008042  d :    10.021895
      dxz     :     2.006115
      dyz     :     2.006115
      dx2y2   :     2.000812
      dxy     :     2.000812
      f0      :     0.000817  f :     0.004789
      f+1     :     0.001284
      f-1     :     0.001284
      f+2     :     0.000701
      f-2     :     0.000701
      f+3     :     0.000000
      f-3     :     0.000000

SPIN
  0 Cos       :    -0.006962  s :    -0.006962
      pz      :     0.011250  p :     0.018813
      px      :     0.003781
      py      :     0.003781
      dz2     :     0.024272  d :     1.950486
      dxz     :     0.962799
      dyz     :     0.962799
      dx2y2   :     0.000308
      dxy     :     0.000308
      f0      :     0.000135  f :     0.000735
      f+1     :     0.000315
      f-1     :     0.000315
      f+2     :    -0.000015
      f-2     :    -0.000015
      f+3     :     0.000000
      f-3     :     0.000000
      g0      :    -0.000044  g :     0.000049
      g+1     :     0.000017
      g-1     :     0.000017
      g+2     :     0.000029
      g-2     :     0.000029
      g+3     :     0.000000
      g-3     :     0.000000
      g+4     :     0.000000
      g-4     :     0.000000
  1 Brs       :    -0.013230  s :    -0.013230
      pz      :    -0.015286  p :     0.049388
      px      :     0.032337
      py      :     0.032337
      dz2     :    -0.000116  d :     0.000243
      dxz     :     0.000391
      dyz     :     0.000391
      dx2y2   :    -0.000212
      dxy     :    -0.000212
      f0      :    -0.000019  f :     0.000479
      f+1     :     0.000358
      f-1     :     0.000358
      f+2     :    -0.000109
      f-2     :    -0.000109
      f+3     :     0.000000
      f-3     :     0.000000


                     *******************************
                     * LOEWDIN POPULATION ANALYSIS *
                     *******************************

-------------------------------------------
LOEWDIN ATOMIC CHARGES AND SPIN POPULATIONS
-------------------------------------------
   0 Co:   -0.066820    1.910877
   1 Br:    0.066820    0.089123

----------------------------------------------------
LOEWDIN REDUCED ORBITAL CHARGES AND SPIN POPULATIONS
----------------------------------------------------
CHARGE
  0 Cos       :     6.342908  s :     6.342908
      pz      :     4.247717  p :    12.415673
      px      :     4.083978
      py      :     4.083978
      dz2     :     2.024801  d :     8.223211
      dxz     :     1.108461
      dyz     :     1.108461
      dx2y2   :     1.990744
      dxy     :     1.990744
      f0      :     0.034870  f :     0.083461
      f+1     :     0.024042
      f-1     :     0.024042
      f+2     :     0.000253
      f-2     :     0.000253
      f+3     :     0.000000
      f-3     :     0.000000
      g0      :     0.000757  g :     0.001568
      g+1     :     0.000380
      g-1     :     0.000380
      g+2     :     0.000025
      g-2     :     0.000025
      g+3     :     0.000000
      g-3     :     0.000000
      g+4     :     0.000000
      g-4     :     0.000000
  1 Brs       :     7.598663  s :     7.598663
      pz      :     5.600705  p :    17.086767
      px      :     5.743031
      py      :     5.743031
      dz2     :     2.098032  d :    10.148166
      dxz     :     2.021046
      dyz     :     2.021046
      dx2y2   :     2.004021
      dxy     :     2.004021
      f0      :     0.051547  f :     0.099584
      f+1     :     0.019062
      f-1     :     0.019062
      f+2     :     0.004956
      f-2     :     0.004956
      f+3     :     0.000000
      f-3     :     0.000000

SPIN
  0 Cos       :    -0.026095  s :    -0.026095
      pz      :     0.009297  p :     0.031302
      px      :     0.011003
      py      :     0.011003
      dz2     :     0.025965  d :     1.902263
      dxz     :     0.936838
      dyz     :     0.936838
      dx2y2   :     0.001311
      dxy     :     0.001311
      f0      :     0.000055  f :     0.003378
      f+1     :     0.001709
      f-1     :     0.001709
      f+2     :    -0.000048
      f-2     :    -0.000048
      f+3     :     0.000000
      f-3     :     0.000000
      g0      :    -0.000046  g :     0.000030
      g+1     :     0.000014
      g-1     :     0.000014
      g+2     :     0.000024
      g-2     :     0.000024
      g+3     :     0.000000
      g-3     :     0.000000
      g+4     :     0.000000
      g-4     :     0.000000
  1 Brs       :    -0.002164  s :    -0.002164
      pz      :    -0.006274  p :     0.049413
      px      :     0.027844
      py      :     0.027844
      dz2     :    -0.000461  d :     0.020121
      dxz     :     0.011058
      dyz     :     0.011058
      dx2y2   :    -0.000767
      dxy     :    -0.000767
      f0      :    -0.000276  f :     0.021753
      f+1     :     0.011534
      f-1     :     0.011534
      f+2     :    -0.000520
      f-2     :    -0.000520
      f+3     :     0.000000
      f-3     :     0.000000


                      *****************************
                      * MAYER POPULATION ANALYSIS *
                      *****************************

  NA   - Mulliken gross atomic population
  ZA   - Total nuclear charge
  QA   - Mulliken gross atomic charge
  VA   - Mayer's total valence
  BVA  - Mayer's bonded valence
  FA   - Mayer's free valence

  ATOM       NA         ZA         QA         VA         BVA        FA
  0 Co    26.5368    27.0000     0.4632     3.1045     1.2010     1.9035
  1 Br    35.4632    35.0000    -0.4632     1.2057     1.2010     0.0047

  Mayer bond orders larger than 0.100000
B(  0-Co,  1-Br) :   1.2010 

-------
TIMINGS
-------

Total SCF time: 0 days 0 hours 6 min 48 sec 

Total time                  ....     408.987 sec
Sum of individual times     ....     408.631 sec  ( 99.9%)

Fock matrix formation       ....     408.128 sec  ( 99.8%)
  XC integration            ....       0.740 sec  (  0.2% of F)
    Basis function eval.    ....       0.142 sec  ( 19.2% of XC)
    Density eval.           ....       0.143 sec  ( 19.3% of XC)
    XC-Functional eval.     ....       0.027 sec  (  3.6% of XC)
    XC-Potential eval.      ....       0.299 sec  ( 40.4% of XC)
Diagonalization             ....       0.093 sec  (  0.0%)
Density matrix formation    ....       0.012 sec  (  0.0%)
Population analysis         ....       0.007 sec  (  0.0%)
Initial guess               ....       0.119 sec  (  0.0%)
Orbital Transformation      ....       0.000 sec  (  0.0%)
Orbital Orthonormalization  ....       0.000 sec  (  0.0%)
DIIS solution               ....       0.034 sec  (  0.0%)
Grid generation             ....       0.238 sec  (  0.1%)

-------------------------   --------------------
FINAL SINGLE POINT ENERGY     -3956.801403780341
-------------------------   --------------------


                            ***************************************
                            *     ORCA property calculations      *
                            ***************************************

                                    ---------------------
                                    Active property flags
                                    ---------------------
   (+) Dipole Moment


------------------------------------------------------------------------------
                       ORCA ELECTRIC PROPERTIES CALCULATION
------------------------------------------------------------------------------

Dipole Moment Calculation                       ... on
Quadrupole Moment Calculation                   ... off
Polarizability Calculation                      ... off
GBWName                                         ... 40_CoBr.gbw
Electron density file                           ... 40_CoBr.scfp
The origin for moment calculation is the CENTER OF MASS  = ( 0.000000,  0.000000  2.204645)

-------------
DIPOLE MOMENT
-------------
                                X             Y             Z
Electronic contribution:     -0.00000      -0.00000       0.72228
Nuclear contribution   :      0.00000       0.00000      -2.84584
                        -----------------------------------------
Total Dipole Moment    :     -0.00000      -0.00000      -2.12355
                        -----------------------------------------
Magnitude (a.u.)       :      2.12355
Magnitude (Debye)      :      5.39764



--------------------
Rotational spectrum 
--------------------
 
Rotational constants in cm-1:     0.000000     0.102086     0.102086 
Rotational constants in MHz :     0.000000  3060.463500  3060.463500 

 Dipole components along the rotational axes: 
x,y,z [a.u.] :    -2.123553    -0.000000    -0.000000 
x,y,z [Debye]:    -5.397643    -0.000000    -0.000000 

 

Timings for individual modules:

Sum of individual times         ...      414.240 sec (=   6.904 min)
GTO integral calculation        ...        4.717 sec (=   0.079 min)   1.1 %
SCF iterations                  ...      409.523 sec (=   6.825 min)  98.9 %
                             ****ORCA TERMINATED NORMALLY****
TOTAL RUN TIME: 0 days 0 hours 6 minutes 54 seconds 855 msec
