
                                 *****************
                                 * O   R   C   A *
                                 *****************

           --- An Ab Initio, DFT and Semiempirical electronic structure package ---

                  #######################################################
                  #                        -***-                        #
                  #          Department of theory and spectroscopy      #
                  #               Directorship: Frank Neese             #
                  #        Max Planck Institute fuer Kohlenforschung    #
                  #                Kaiser Wilhelm Platz 1               #
                  #                 D-45470 Muelheim/Ruhr               #
                  #                      Germany                        #
                  #                                                     #
                  #                  All rights reserved                #
                  #                        -***-                        #
                  #######################################################


                         Program Version 4.2.0 -  RELEASE  -


 With contributions from (in alphabetic order):
   Daniel Aravena         : Magnetic Suceptibility
   Michael Atanasov       : Ab Initio Ligand Field Theory (pilot matlab implementation)
   Alexander A. Auer      : GIAO ZORA, VPT2
   Ute Becker             : Parallelization
   Giovanni Bistoni       : ED, misc. LED, open-shell LED, HFLED
   Martin Brehm           : Molecular dynamics
   Dmytro Bykov           : SCF Hessian
   Vijay G. Chilkuri      : MRCI spin determinant printing, contributions to CSF-ICE
   Dipayan Datta          : RHF DLPNO-CCSD density
   Achintya Kumar Dutta   : EOM-CC, STEOM-CC
   Dmitry Ganyushin       : Spin-Orbit,Spin-Spin,Magnetic field MRCI
   Miquel Garcia          : C-PCM Hessian, Gaussian charge scheme
   Yang Guo               : DLPNO-NEVPT2, CIM, IAO-localization
   Andreas Hansen         : Spin unrestricted coupled pair/coupled cluster methods
   Benjamin Helmich-Paris : CASSCF linear response (MC-RPA)
   Lee Huntington         : MR-EOM, pCC
   Robert Izsak           : Overlap fitted RIJCOSX, COSX-SCS-MP3, EOM
   Christian Kollmar      : KDIIS, OOCD, Brueckner-CCSD(T), CCSD density
   Simone Kossmann        : Meta GGA functionals, TD-DFT gradient, OOMP2, MP2 Hessian
   Martin Krupicka        : AUTO-CI
   Lucas Lang             : DCDCAS
   Dagmar Lenk            : GEPOL surface, SMD
   Dimitrios Liakos       : Extrapolation schemes; Compound Job, initial MDCI parallelization
   Dimitrios Manganas     : Further ROCIS development; embedding schemes
   Dimitrios Pantazis     : SARC Basis sets
   Taras Petrenko         : DFT Hessian,TD-DFT gradient, ASA, ECA, R-Raman, ABS, FL, XAS/XES, NRVS
   Peter Pinski           : DLPNO-MP2, DLPNO-MP2 Gradient
   Christoph Reimann      : Effective Core Potentials
   Marius Retegan         : Local ZFS, SOC
   Christoph Riplinger    : Optimizer, TS searches, QM/MM, DLPNO-CCSD(T), (RO)-DLPNO pert. Triples
   Tobias Risthaus        : Range-separated hybrids, TD-DFT gradient, RPA, STAB
   Michael Roemelt        : Original ROCIS implementation
   Masaaki Saitow         : Open-shell DLPNO-CCSD energy and density
   Barbara Sandhoefer     : DKH picture change effects
   Avijit Sen             : IP-ROCIS
   Kantharuban Sivalingam : CASSCF convergence, NEVPT2, FIC-MRCI
   Bernardo de Souza      : ESD, SOC TD-DFT
   Georgi Stoychev        : AutoAux, RI-MP2 NMR
   Willem Van den Heuvel  : Paramagnetic NMR
   Boris Wezisla          : Elementary symmetry handling
   Frank Wennmohs         : Technical directorship


 We gratefully acknowledge several colleagues who have allowed us to
 interface, adapt or use parts of their codes:
   Stefan Grimme, W. Hujo, H. Kruse,             : VdW corrections, initial TS optimization,
                  C. Bannwarth                     DFT functionals, gCP, sTDA/sTD-DF
   Ed Valeev, F. Pavosevic, A. Kumar             : LibInt (2-el integral package), F12 methods
   Garnet Chan, S. Sharma, J. Yang, R. Olivares  : DMRG
   Ulf Ekstrom                                   : XCFun DFT Library
   Mihaly Kallay                                 : mrcc  (arbitrary order and MRCC methods)
   Andreas Klamt, Michael Diedenhofen            : otool_cosmo (COSMO solvation model)
   Jiri Pittner, Ondrej Demel                    : Mk-CCSD
   Frank Weinhold                                : gennbo (NPA and NBO analysis)
   Christopher J. Cramer and Donald G. Truhlar   : smd solvation model
   Lars Goerigk                                  : TD-DFT with DH, B97 family of functionals
   V. Asgeirsson, H. Jonsson                     : NEB implementation
   FAccTs GmbH                                   : IRC, NEB, NEB-TS, Multilevel, MM, QM/MM, CI optimization
   S Lehtola, MJT Oliveira, MAL Marques          : LibXC Library


 Your calculation uses the libint2 library for the computation of 2-el integrals
 For citations please refer to: http://libint.valeyev.net

 Your ORCA version has been built with support for libXC version: 4.2.3
 For citations please refer to: https://tddft.org/programs/libxc/

 This ORCA versions uses:
   CBLAS   interface :  Fast vector & matrix operations
   LAPACKE interface :  Fast linear algebra routines
   SCALAPACK package :  Parallel linear algebra routines


Your calculation utilizes the DFT-NL dispersion correction.
Cite in your paper:
Vydrov, O. A.; Van Voorhis, T. J. Chem. Phys. 2010, 133, 244103
Hujo, W.; Grimme, S. J. Chem. Theory Comput. 2011, 7, 3866 
   

----- Orbital basis set information -----
Your calculation utilizes the basis: aug-cc-pVTZ 
    H, B-Ne : Obtained from the ccRepo (grant-hill.group.shef.ac.uk/ccrepo) Feb. 2017
              R. A. Kendall, T. H. Dunning, Jr., R. J. Harrison, J. Chem. Phys. 96, 6796 (1992)
         He : Obtained from the ccRepo (grant-hill.group.shef.ac.uk/ccrepo) Feb. 2017
              D. E. Woon, T. H. Dunning, Jr., J. Chem. Phys. 100, 2975 (1994)
  Li-Be, Na : Obtained from the ccRepo (grant-hill.group.shef.ac.uk/ccrepo) Feb. 2017
              B. P. Prascher, D. E. Woon, K. A. Peterson, T. H. Dunning, Jr., A. K. Wilson, Theor. Chem. Acc. 128, 69 (2011)
         Mg : Obtained from the Peterson Research Group Website (tyr0.chem.wsu.edu/~kipeters) Feb. 2017
              B. P. Prascher, D. E. Woon, K. A. Peterson, T. H. Dunning, Jr., A. K. Wilson, Theor. Chem. Acc. 128, 69 (2011)
      Al-Ar : Obtained from the ccRepo (grant-hill.group.shef.ac.uk/ccrepo) Feb. 2017
              D. E. Woon, T. H. Dunning, Jr., J. Chem. Phys. 98, 1358 (1993)
      Sc-Zn : Obtained from the ccRepo (grant-hill.group.shef.ac.uk/ccrepo) Feb. 2017
              N. B. Balabanov, K. A. Peterson, J. Chem. Phys. 123, 064107 (2005)
              N. B. Balabanov, K. A. Peterson, J. Chem. Phys. 125, 074110 (2006)
      Ga-Kr : Obtained from the ccRepo (grant-hill.group.shef.ac.uk/ccrepo) Feb. 2017
              A. K. Wilson, D. E. Woon, K. A. Peterson, T. H. Dunning, Jr., J. Chem. Phys. 110, 7667 (1999)
     Ag, Au : Obtained from the Peterson Research Group Website (tyr0.chem.wsu.edu/~kipeters) Feb. 2017
              K. A. Peterson, C. Puzzarini, Theor. Chem. Acc. 114, 283 (2005)

----- AuxJK basis set information -----
Your calculation utilizes the auxiliary basis: def2/JK
   H-Ba, Hf-Rn: F. Weigend, J. Comput. Chem. 29, 167 (2008).

================================================================================
                                        WARNINGS
                       Please study these warnings very carefully!
================================================================================


WARNING: your system is open-shell and RHF/RKS was chosen
  ===> : WILL SWITCH to UHF/UKS


INFO   : the flag for use of LIBINT has been found!

================================================================================
                                       INPUT FILE
================================================================================
NAME = 41_CoO.in
|  1> #
|  2> # 41_CoO wb97m-v/aug-cc-pvtz
|  3> #
|  4> ! wb97m-v aug-cc-pvtz def2/jk grid4 nofinalgrid
|  5> 
|  6> *xyz 0 4
|  7>   Co  0.00000000000000      0.00000000000000      0.18722579130779
|  8>   O   0.00000000000000      0.00000000000000      1.81277420869221
|  9> *
| 10> 
| 11> %pal
| 12> nprocs 24
| 13> end
| 14> 
| 15> 
| 16>                          ****END OF INPUT****
================================================================================

                       ****************************
                       * Single Point Calculation *
                       ****************************

---------------------------------
CARTESIAN COORDINATES (ANGSTROEM)
---------------------------------
  Co     0.000000    0.000000    0.187226
  O      0.000000    0.000000    1.812774

----------------------------
CARTESIAN COORDINATES (A.U.)
----------------------------
  NO LB      ZA    FRAG     MASS         X           Y           Z
   0 Co   27.0000    0    58.930    0.000000    0.000000    0.353805
   1 O     8.0000    0    15.999    0.000000    0.000000    3.425647

--------------------------------
INTERNAL COORDINATES (ANGSTROEM)
--------------------------------
 Co     0   0   0     0.000000000000     0.00000000     0.00000000
 O      1   0   0     1.625548417384     0.00000000     0.00000000

---------------------------
INTERNAL COORDINATES (A.U.)
---------------------------
 Co     0   0   0     0.000000000000     0.00000000     0.00000000
 O      1   0   0     3.071841326286     0.00000000     0.00000000

---------------------
BASIS SET INFORMATION
---------------------
There are 2 groups of distinct atoms

 Group   1 Type Co  : 116s77p23d3f2g contracted to 8s7p5d3f2g pattern {19191919191911/151515151511/77711/111/11}
 Group   2 Type O   : 19s6p3d2f contracted to 5s4p3d2f pattern {88111/3111/111/11}

Atom   0Co   basis set group =>   1
Atom   1O    basis set group =>   2
----------------------------------
AUXILIARY/JK BASIS SET INFORMATION
----------------------------------
There are 2 groups of distinct atoms

 Group   1 Type Co  : 19s14p12d10f7g3h1i contracted to 16s13p11d9f5g3h1i pattern {4111111111111111/2111111111111/21111111111/211111111/31111/111/1}
 Group   2 Type O   : 14s10p6d2f1g contracted to 10s8p4d2f1g pattern {5111111111/31111111/3111/11/1}

Atom   0Co   basis set group =>   1
Atom   1O    basis set group =>   2


           ************************************************************
           *        Program running with 24 parallel MPI-processes    *
           *              working on a common directory               *
           ************************************************************
------------------------------------------------------------------------------
                           ORCA GTO INTEGRAL CALCULATION
------------------------------------------------------------------------------

                         BASIS SET STATISTICS AND STARTUP INFO

 # of primitive gaussian shells          ...  251
 # of primitive gaussian functions       ...  567
 # of contracted shells                  ...   39
 # of contracted basis functions         ...  139
 Highest angular momentum                ...    4
 Maximum contraction depth               ...   19
 Integral package used                   ... LIBINT
 Integral threshhold            Thresh   ...  1.000e-10
 Primitive cut-off              TCut     ...  1.000e-11


------------------------------ INTEGRAL EVALUATION ----------------------------


 * One electron integrals 
 Pre-screening matrix                    ... done
 Shell pair data                         ... done (   0.001 sec)



           ************************************************************
           *        Program running with 24 parallel MPI-processes    *
           *              working on a common directory               *
           ************************************************************
-------------------------------------------------------------------------------
                                 ORCA SCF
-------------------------------------------------------------------------------

------------
SCF SETTINGS
------------
Hamiltonian:
 Density Functional     Method          .... DFT(GTOs)
 Exchange Functional    Exchange        .... WB97M-V
 Correlation Functional Correlation     .... WB97M-V
 Gradients option       PostSCFGGA      .... off
 Hybrid DFT is turned on
   Fraction HF Exchange ScalHFX         ....  0.150000
   Scaling of DF-GGA-X  ScalDFX         ....  0.000000
   Scaling of DF-GGA-C  ScalDFC         ....  1.000000
   Scaling of DF-LDA-C  ScalLDAC        ....  1.000000
   Perturbative correction              ....  0.000000
   Density functional embedding theory  .... OFF
 Long-range corrected/Screened/Range-Separated Hybrid DFT is turned on
   Amount of maximum screened exact exchange              ....  0.850000
   Range separation parameter mu (erf(mu*r12)/r12)        ....  0.300000
   NL short-range parameter             ....  6.000000
   NL long-range parameter              ....  0.010000


General Settings:
 Integral files         IntName         .... 41_CoO
 Hartree-Fock type      HFTyp           .... UHF
 Total Charge           Charge          ....    0
 Multiplicity           Mult            ....    4
 Number of Electrons    NEL             ....   35
 Basis Dimension        Dim             ....  139
 Nuclear Repulsion      ENuc            ....     70.3161319407 Eh

Convergence Acceleration:
 DIIS                   CNVDIIS         .... on
   Start iteration      DIISMaxIt       ....    12
   Startup error        DIISStart       ....  0.200000
   # of expansion vecs  DIISMaxEq       ....     5
   Bias factor          DIISBfac        ....   1.050
   Max. coefficient     DIISMaxC        ....  10.000
 Newton-Raphson         CNVNR           .... off
 SOSCF                  CNVSOSCF        .... off
 Level Shifting         CNVShift        .... on
   Level shift para.    LevelShift      ....    0.2500
   Turn off err/grad.   ShiftErr        ....    0.0010
 Zerner damping         CNVZerner       .... off
 Static damping         CNVDamp         .... on
   Fraction old density DampFac         ....    0.7000
   Max. Damping (<1)    DampMax         ....    0.9800
   Min. Damping (>=0)   DampMin         ....    0.0000
   Turn off err/grad.   DampErr         ....    0.1000
 Fernandez-Rico         CNVRico         .... off

SCF Procedure:
 Maximum # iterations   MaxIter         ....   125
 SCF integral mode      SCFMode         .... Direct
   Integral package                     .... LIBINT
 Reset frequency        DirectResetFreq ....    20
 Integral Threshold     Thresh          ....  1.000e-10 Eh
 Primitive CutOff       TCut            ....  1.000e-11 Eh

Convergence Tolerance:
 Convergence Check Mode ConvCheckMode   .... Total+1el-Energy
 Convergence forced     ConvForced      .... 0
 Energy Change          TolE            ....  1.000e-06 Eh
 1-El. energy change                    ....  1.000e-03 Eh
 DIIS Error             TolErr          ....  1.000e-06


Diagonalization of the overlap matrix:
Smallest eigenvalue                        ... 8.975e-05
Time for diagonalization                   ...    0.005 sec
Threshold for overlap eigenvalues          ... 1.000e-08
Number of eigenvalues below threshold      ... 0
Time for construction of square roots      ...    0.002 sec
Total time needed                          ...    0.007 sec

-------------------
DFT GRID GENERATION
-------------------

General Integration Accuracy     IntAcc      ...  4.670
Radial Grid Type                 RadialGrid  ... Gauss-Chebyshev
Angular Grid (max. acc.)         AngularGrid ... Lebedev-302
Angular grid pruning method      GridPruning ... 3 (G Style)
Weight generation scheme         WeightScheme... Becke
Basis function cutoff            BFCut       ...    1.0000e-10
Integration weight cutoff        WCut        ...    1.0000e-14
Grids for H and He will be reduced by one unit

# of grid points (after initial pruning)     ...  15852 (   0.0 sec)
# of grid points (after weights+screening)   ...  15810 (   0.0 sec)
nearest neighbour list constructed           ...    0.0 sec
Grid point re-assignment to atoms done       ...    0.0 sec
Grid point division into batches done        ...    0.1 sec
Reduced shell lists constructed in    0.1 sec

Total number of grid points                  ...    15810
Total number of batches                      ...      248
Average number of points per batch           ...       63
Average number of grid points per atom       ...     7905
Average number of shells per batch           ...    14.17 (36.32%)
Average number of basis functions per batch  ...    33.33 (23.98%)
Average number of large shells per batch     ...     6.42 (45.29%)
Average number of large basis fcns per batch ...    16.42 (49.25%)
Maximum spatial batch extension              ...  28.57, 31.41, 18.20 au
Average spatial batch extension              ...   0.89,  0.95,  0.67 au

Time for grid setup =    0.156 sec

------------------------------
INITIAL GUESS: MODEL POTENTIAL
------------------------------
Loading Hartree-Fock densities                     ... done
Calculating cut-offs                               ... done
Setting up the integral package                    ... done
Initializing the effective Hamiltonian             ... done
Starting the Coulomb interaction                   ... done (   0.0 sec)
Reading the grid                                   ... done
Mapping shells                                     ... done
Starting the XC term evaluation                    ... done (   0.0 sec)
  promolecular density results
     # of electrons  =     35.000025209
     EX              =    -65.830524438
     EC              =     -1.472709194
     EX+EC           =    -67.303233632
Transforming the Hamiltonian                       ... done (   0.0 sec)
Diagonalizing the Hamiltonian                      ... done (   0.0 sec)
Back transforming the eigenvectors                 ... done (   0.0 sec)
Now organizing SCF variables                       ... done
                      ------------------
                      INITIAL GUESS DONE (   0.3 sec)
                      ------------------
--------------
SCF ITERATIONS
--------------
ITER       Energy         Delta-E        Max-DP      RMS-DP      [F,P]     Damp
               ***  Starting incremental Fock matrix formation  ***
  0  -1457.7837544255   0.000000000000 0.08967085  0.00128177  0.4267669 0.7000
  1  -1457.8941681626  -0.110413737099 0.03223964  0.00079061  0.1339227 0.7000
                               ***Turning on DIIS***
  2  -1457.9244981416  -0.030329979084 0.05993987  0.00131822  0.0901617 0.0000
  3  -1458.0014308440  -0.076932702355 0.01127485  0.00020827  0.1475863 0.7000
  4  -1458.0069672191  -0.005536375087 0.00768600  0.00015497  0.1130966 0.7000
  5  -1458.0110564222  -0.004089203122 0.01648582  0.00035087  0.0806448 0.0000
  6  -1458.0179579029  -0.006901480691 0.00609546  0.00012774  0.0078822 0.0000
  7  -1458.0182506636  -0.000292760702 0.00305641  0.00005111  0.0036640 0.0000
  8  -1458.0183881202  -0.000137456574 0.00267659  0.00003506  0.0028177 0.0000
  9  -1458.0184697956  -0.000081675413 0.00280582  0.00003407  0.0022095 0.0000
 10  -1458.0185303918  -0.000060596160 0.00221058  0.00002716  0.0014754 0.0000
 11  -1458.0185690370  -0.000038645210 0.00284300  0.00003111  0.0009662 0.0000
 12  -1458.0186196148  -0.000050577793 0.00183280  0.00002138  0.0004556 0.0000
 13  -1458.0186396960  -0.000020081271 0.00104124  0.00001152  0.0001791 0.0000
 14  -1458.0186499474  -0.000010251331 0.00009501  0.00000136  0.0002586 0.0000
 15  -1458.0186500569  -0.000000109494 0.00027456  0.00000353  0.0000908 0.0000
 16  -1458.0186513612  -0.000001304328 0.00007722  0.00000126  0.0000741 0.0000
                 **** Energy Check signals convergence ****

               *****************************************************
               *                     SUCCESS                       *
               *           SCF CONVERGED AFTER  17 CYCLES          *
               *****************************************************


Setting up the DFT-NL grid :

General Integration Accuracy     IntAcc      ...  4.340
Radial Grid Type                 RadialGrid  ... Gauss-Chebyshev
Angular Grid (max. acc.)         AngularGrid ... Lebedev-110
Angular grid pruning method      GridPruning ... 3 (G Style)
Weight generation scheme         WeightScheme... Becke
Basis function cutoff            BFCut       ...    1.0000e-10
Integration weight cutoff        WCut        ...    1.0000e-14
Grids for H and He will be reduced by one unit

# of grid points (after initial pruning)     ...   4628 (   0.0 sec)
# of grid points (after weights+screening)   ...   4601 (   0.0 sec)
nearest neighbour list constructed           ...    0.0 sec
Grid point re-assignment to atoms done       ...    0.0 sec
Grid point division into batches done        ...    0.0 sec
Reduced shell lists constructed in    0.0 sec

Total number of grid points                  ...     4601
Total number of batches                      ...       73
Average number of points per batch           ...       63
Average number of grid points per atom       ...     2300
Average number of shells per batch           ...    21.20 (54.36%)
Average number of basis functions per batch  ...    62.00 (44.60%)
Average number of large shells per batch     ...    15.20 (71.70%)
Average number of large basis fcns per batch ...    42.40 (68.39%)
Maximum spatial batch extension              ...  19.55, 28.73, 15.77 au
Average spatial batch extension              ...   0.97,  1.33,  0.86 au

Final grid set up in    0.0 sec

-------------------------------------------------------------------------------
                         DFT-NL dispersion correction                          
-------------------------------------------------------------------------------

SC Energy -1458.018651754 
NL    Energy 0.147157488 
SC+NL Energy -1457.871494266 
NL done in    0.0 sec
-------------------------------------------------------------------------------

----------------
TOTAL SCF ENERGY
----------------

Total Energy       :        -1457.87149427 Eh          -39670.70018 eV

Components:
Nuclear Repulsion  :           70.31613194 Eh            1913.39923 eV
Electronic Energy  :        -1528.18762621 Eh          -41584.09940 eV
One Electron Energy:        -2160.67908214 Eh          -58795.06691 eV
Two Electron Energy:          632.49145593 Eh           17210.96750 eV

Virial components:
Potential Energy   :        -2913.77710089 Eh          -79287.90583 eV
Kinetic Energy     :         1455.90560663 Eh           39617.20566 eV
Virial Ratio       :            2.00135029


DFT components:
N(Alpha)           :       19.000003890497 electrons
N(Beta)            :       16.000004557312 electrons
N(Total)           :       35.000008447809 electrons
E(X)               :      -51.490405689462 Eh       
E(C)               :       -1.729665637133 Eh       
NL Energy, E(C,NL) :        0.147157488322 Eh       
E(XC)              :      -53.072913838272 Eh       
DFET-embed. en.    :        0.000000000000 Eh       

---------------
SCF CONVERGENCE
---------------

  Last Energy change         ...   -3.9315e-07  Tolerance :   1.0000e-06
  Last MAX-Density change    ...    4.7413e-05  Tolerance :   1.0000e-05
  Last RMS-Density change    ...    6.1060e-07  Tolerance :   1.0000e-06
  Last DIIS Error            ...    3.6517e-05  Tolerance :   1.0000e-06

             **** THE GBW FILE WAS UPDATED (41_CoO.gbw) ****
             **** DENSITY FILE WAS UPDATED (41_CoO.scfp) ****
             **** ENERGY FILE WAS UPDATED (41_CoO.en.tmp) ****
----------------------
UHF SPIN CONTAMINATION
----------------------

Warning: in a DFT calculation there is little theoretical justification to 
         calculate <S**2> as in Hartree-Fock theory. We will do it anyways
         but you should keep in mind that the values have only limited relevance

Expectation value of <S**2>     :     3.766990
Ideal value S*(S+1) for S=1.5   :     3.750000
Deviation                       :     0.016990

             **** THE GBW FILE WAS UPDATED (41_CoO.gbw) ****
             **** DENSITY FILE WAS UPDATED (41_CoO.scfp) ****
----------------
ORBITAL ENERGIES
----------------
                 SPIN UP ORBITALS
  NO   OCC          E(Eh)            E(eV) 
   0   1.0000    -278.047561     -7566.0588 
   1   1.0000     -33.113017      -901.0510 
   2   1.0000     -28.689141      -780.6712 
   3   1.0000     -28.640183      -779.3390 
   4   1.0000     -28.640183      -779.3390 
   5   1.0000     -19.299788      -525.1739 
   6   1.0000      -3.943244      -107.3011 
   7   1.0000      -2.669103       -72.6300 
   8   1.0000      -2.569643       -69.9235 
   9   1.0000      -2.569643       -69.9235 
  10   1.0000      -0.999539       -27.1988 
  11   1.0000      -0.504791       -13.7360 
  12   1.0000      -0.495050       -13.4710 
  13   1.0000      -0.495050       -13.4710 
  14   1.0000      -0.398944       -10.8558 
  15   1.0000      -0.398944       -10.8558 
  16   1.0000      -0.353002        -9.6057 
  17   1.0000      -0.352484        -9.5916 
  18   1.0000      -0.352484        -9.5916 
  19   0.0000      -0.054141        -1.4732 
  20   0.0000       0.011648         0.3170 
  21   0.0000       0.011648         0.3170 
  22   0.0000       0.019031         0.5179 
  23   0.0000       0.026466         0.7202 
  24   0.0000       0.069817         1.8998 
  25   0.0000       0.069817         1.8998 
  26   0.0000       0.082370         2.2414 
  27   0.0000       0.088742         2.4148 
  28   0.0000       0.088742         2.4148 
  29   0.0000       0.097572         2.6551 
  30   0.0000       0.097572         2.6551 
  31   0.0000       0.123357         3.3567 
  32   0.0000       0.148645         4.0448 
  33   0.0000       0.237940         6.4747 
  34   0.0000       0.251126         6.8335 
  35   0.0000       0.251126         6.8335 
  36   0.0000       0.255142         6.9428 
  37   0.0000       0.255142         6.9428 
  38   0.0000       0.316348         8.6083 
  39   0.0000       0.372994        10.1497 
  40   0.0000       0.372994        10.1497 
  41   0.0000       0.383404        10.4330 
  42   0.0000       0.383404        10.4330 
  43   0.0000       0.404196        10.9987 
  44   0.0000       0.582737        15.8571 
  45   0.0000       0.678616        18.4661 
  46   0.0000       0.678879        18.4732 
  47   0.0000       0.678879        18.4732 
  48   0.0000       0.791572        21.5398 
  49   0.0000       0.791572        21.5398 
  50   0.0000       0.815121        22.1806 
  51   0.0000       0.923262        25.1232 
  52   0.0000       0.923262        25.1232 
  53   0.0000       1.040426        28.3114 
  54   0.0000       1.040426        28.3114 
  55   0.0000       1.061339        28.8805 
  56   0.0000       1.081039        29.4166 
  57   0.0000       1.081039        29.4166 
  58   0.0000       1.191949        32.4346 
  59   0.0000       1.191950        32.4346 
  60   0.0000       1.193163        32.4676 
  61   0.0000       1.205409        32.8009 
  62   0.0000       1.205409        32.8009 
  63   0.0000       1.294327        35.2204 
  64   0.0000       1.349255        36.7151 
  65   0.0000       1.349255        36.7151 
  66   0.0000       1.603705        43.6390 
  67   0.0000       1.603705        43.6390 
  68   0.0000       1.809431        49.2371 
  69   0.0000       1.981212        53.9115 
  70   0.0000       1.995485        54.2999 
  71   0.0000       1.995485        54.2999 
  72   0.0000       2.060353        56.0651 
  73   0.0000       2.060364        56.0653 
  74   0.0000       2.223743        60.5111 
  75   0.0000       2.223743        60.5111 
  76   0.0000       2.253679        61.3257 
  77   0.0000       2.253697        61.3262 
  78   0.0000       2.403391        65.3996 
  79   0.0000       2.724479        74.1368 
  80   0.0000       2.724479        74.1368 
  81   0.0000       3.006681        81.8160 
  82   0.0000       3.262571        88.7791 
  83   0.0000       3.262571        88.7791 
  84   0.0000       3.269673        88.9723 
  85   0.0000       3.278785        89.2203 
  86   0.0000       3.278785        89.2203 
  87   0.0000       3.461951        94.2045 
  88   0.0000       3.461951        94.2045 
  89   0.0000       3.495053        95.1052 
  90   0.0000       3.495053        95.1052 
  91   0.0000       3.578238        97.3688 
  92   0.0000       3.946787       107.3975 
  93   0.0000       3.946787       107.3975 
  94   0.0000       3.963061       107.8404 
  95   0.0000       4.131979       112.4369 
  96   0.0000       4.131988       112.4371 
  97   0.0000       4.141935       112.7078 
  98   0.0000       4.141935       112.7078 
  99   0.0000       4.234000       115.2130 
 100   0.0000       4.355607       118.5221 
 101   0.0000       4.355610       118.5222 
 102   0.0000       4.670402       127.0881 
 103   0.0000       4.670402       127.0881 
 104   0.0000       5.278262       143.6288 
 105   0.0000       5.283353       143.7674 
 106   0.0000       5.283355       143.7674 
 107   0.0000       5.689903       154.8301 
 108   0.0000       5.689903       154.8301 
 109   0.0000       6.208148       168.9323 
 110   0.0000       6.208148       168.9323 
 111   0.0000       6.310536       171.7184 
 112   0.0000       6.310554       171.7189 
 113   0.0000       6.482147       176.3882 
 114   0.0000       6.566491       178.6833 
 115   0.0000       6.566491       178.6833 
 116   0.0000       6.695816       182.2024 
 117   0.0000       6.695855       182.2035 
 118   0.0000       7.042185       191.6276 
 119   0.0000       7.063778       192.2152 
 120   0.0000       7.063778       192.2152 
 121   0.0000       7.358616       200.2381 
 122   0.0000      10.562040       287.4077 
 123   0.0000      10.562052       287.4080 
 124   0.0000      10.604555       288.5646 
 125   0.0000      10.604555       288.5646 
 126   0.0000      10.642208       289.5892 
 127   0.0000      10.642208       289.5892 
 128   0.0000      10.853950       295.3510 
 129   0.0000      10.990028       299.0539 
 130   0.0000      11.640133       316.7441 
 131   0.0000      11.640133       316.7441 
 132   0.0000      11.675960       317.7190 
 133   0.0000      11.675995       317.7200 
 134   0.0000      11.720963       318.9436 
 135   0.0000      11.720968       318.9437 
 136   0.0000      11.984197       326.1066 
 137   0.0000      11.984197       326.1066 
 138   0.0000      12.346805       335.9737 

                 SPIN DOWN ORBITALS
  NO   OCC          E(Eh)            E(eV) 
   0   1.0000    -278.045639     -7566.0065 
   1   1.0000     -33.056315      -899.5081 
   2   1.0000     -28.626737      -778.9731 
   3   1.0000     -28.604238      -778.3609 
   4   1.0000     -28.604238      -778.3609 
   5   1.0000     -19.283158      -524.7214 
   6   1.0000      -3.835137      -104.3594 
   7   1.0000      -2.496401       -67.9305 
   8   1.0000      -2.480829       -67.5068 
   9   1.0000      -2.480829       -67.5068 
  10   1.0000      -0.956318       -26.0227 
  11   1.0000      -0.408192       -11.1075 
  12   1.0000      -0.366171        -9.9640 
  13   1.0000      -0.366171        -9.9640 
  14   1.0000      -0.336486        -9.1562 
  15   1.0000      -0.336485        -9.1562 
  16   0.0000      -0.083954        -2.2845 
  17   0.0000      -0.022332        -0.6077 
  18   0.0000      -0.022332        -0.6077 
  19   0.0000      -0.005754        -0.1566 
  20   0.0000       0.014311         0.3894 
  21   0.0000       0.027955         0.7607 
  22   0.0000       0.029718         0.8087 
  23   0.0000       0.029719         0.8087 
  24   0.0000       0.062068         1.6890 
  25   0.0000       0.062068         1.6890 
  26   0.0000       0.069243         1.8842 
  27   0.0000       0.069243         1.8842 
  28   0.0000       0.078360         2.1323 
  29   0.0000       0.093720         2.5502 
  30   0.0000       0.093721         2.5503 
  31   0.0000       0.120761         3.2861 
  32   0.0000       0.136306         3.7091 
  33   0.0000       0.233781         6.3615 
  34   0.0000       0.244689         6.6583 
  35   0.0000       0.244689         6.6583 
  36   0.0000       0.251611         6.8467 
  37   0.0000       0.251612         6.8467 
  38   0.0000       0.325469         8.8565 
  39   0.0000       0.355065         9.6618 
  40   0.0000       0.355065         9.6618 
  41   0.0000       0.375354        10.2139 
  42   0.0000       0.375354        10.2139 
  43   0.0000       0.401901        10.9363 
  44   0.0000       0.579087        15.7578 
  45   0.0000       0.676466        18.4076 
  46   0.0000       0.676467        18.4076 
  47   0.0000       0.685058        18.6414 
  48   0.0000       0.797048        21.6888 
  49   0.0000       0.797048        21.6888 
  50   0.0000       0.818737        22.2790 
  51   0.0000       0.934062        25.4171 
  52   0.0000       0.934062        25.4171 
  53   0.0000       1.057900        28.7869 
  54   0.0000       1.057900        28.7869 
  55   0.0000       1.071983        29.1701 
  56   0.0000       1.078378        29.3442 
  57   0.0000       1.078378        29.3442 
  58   0.0000       1.190552        32.3966 
  59   0.0000       1.190552        32.3966 
  60   0.0000       1.204380        32.7729 
  61   0.0000       1.214793        33.0562 
  62   0.0000       1.214793        33.0562 
  63   0.0000       1.311700        35.6932 
  64   0.0000       1.371589        37.3228 
  65   0.0000       1.371590        37.3229 
  66   0.0000       1.630961        44.3807 
  67   0.0000       1.630961        44.3807 
  68   0.0000       1.834466        49.9183 
  69   0.0000       2.002687        54.4959 
  70   0.0000       2.002687        54.4959 
  71   0.0000       2.003634        54.5216 
  72   0.0000       2.082291        56.6620 
  73   0.0000       2.082292        56.6620 
  74   0.0000       2.240739        60.9736 
  75   0.0000       2.240739        60.9736 
  76   0.0000       2.261231        61.5312 
  77   0.0000       2.261262        61.5321 
  78   0.0000       2.426646        66.0324 
  79   0.0000       2.741570        74.6019 
  80   0.0000       2.741570        74.6019 
  81   0.0000       3.038832        82.6908 
  82   0.0000       3.295835        89.6842 
  83   0.0000       3.295835        89.6842 
  84   0.0000       3.329246        90.5934 
  85   0.0000       3.335378        90.7602 
  86   0.0000       3.335378        90.7602 
  87   0.0000       3.515436        95.6599 
  88   0.0000       3.515436        95.6599 
  89   0.0000       3.541166        96.3600 
  90   0.0000       3.541166        96.3600 
  91   0.0000       3.629982        98.7768 
  92   0.0000       3.991932       108.6260 
  93   0.0000       3.991932       108.6260 
  94   0.0000       4.021725       109.4367 
  95   0.0000       4.156926       113.1157 
  96   0.0000       4.156937       113.1160 
  97   0.0000       4.170502       113.4851 
  98   0.0000       4.170502       113.4851 
  99   0.0000       4.262666       115.9930 
 100   0.0000       4.380993       119.2129 
 101   0.0000       4.380998       119.2130 
 102   0.0000       4.710725       128.1853 
 103   0.0000       4.710725       128.1853 
 104   0.0000       5.327869       144.9787 
 105   0.0000       5.337612       145.2438 
 106   0.0000       5.337614       145.2439 
 107   0.0000       5.782263       157.3434 
 108   0.0000       5.782263       157.3434 
 109   0.0000       6.251244       170.1050 
 110   0.0000       6.251244       170.1050 
 111   0.0000       6.341873       172.5711 
 112   0.0000       6.341915       172.5723 
 113   0.0000       6.532065       177.7465 
 114   0.0000       6.593362       179.4145 
 115   0.0000       6.593362       179.4145 
 116   0.0000       6.759622       183.9387 
 117   0.0000       6.759623       183.9387 
 118   0.0000       7.100848       193.2239 
 119   0.0000       7.111134       193.5038 
 120   0.0000       7.111134       193.5038 
 121   0.0000       7.393685       201.1924 
 122   0.0000      10.666380       290.2470 
 123   0.0000      10.666380       290.2470 
 124   0.0000      10.687995       290.8351 
 125   0.0000      10.688006       290.8354 
 126   0.0000      10.778115       293.2874 
 127   0.0000      10.778115       293.2874 
 128   0.0000      10.924988       297.2840 
 129   0.0000      11.087729       301.7124 
 130   0.0000      11.717856       318.8591 
 131   0.0000      11.717856       318.8591 
 132   0.0000      11.719346       318.8996 
 133   0.0000      11.719379       318.9005 
 134   0.0000      11.811680       321.4121 
 135   0.0000      11.811687       321.4123 
 136   0.0000      12.077372       328.6420 
 137   0.0000      12.077372       328.6420 
 138   0.0000      12.432312       338.3004 

                    ********************************
                    * MULLIKEN POPULATION ANALYSIS *
                    ********************************

--------------------------------------------
MULLIKEN ATOMIC CHARGES AND SPIN POPULATIONS
--------------------------------------------
   0 Co:    0.662777    2.297805
   1 O :   -0.662777    0.702195
Sum of atomic charges         :   -0.0000000
Sum of atomic spin populations:    3.0000000

-----------------------------------------------------
MULLIKEN REDUCED ORBITAL CHARGES AND SPIN POPULATIONS
-----------------------------------------------------
CHARGE
  0 Cos       :     6.355519  s :     6.355519
      pz      :     4.051358  p :    12.195906
      px      :     4.072274
      py      :     4.072274
      dz2     :     1.208767  d :     7.764372
      dxz     :     1.278815
      dyz     :     1.278815
      dx2y2   :     1.998988
      dxy     :     1.998988
      f0      :     0.006513  f :     0.019804
      f+1     :     0.006281
      f-1     :     0.006281
      f+2     :     0.000365
      f-2     :     0.000365
      f+3     :     0.000000
      f-3     :     0.000000
      g0      :     0.000533  g :     0.001622
      g+1     :     0.000521
      g-1     :     0.000521
      g+2     :     0.000024
      g-2     :     0.000024
      g+3     :    -0.000000
      g-3     :    -0.000000
      g+4     :     0.000000
      g-4     :     0.000000
  1 O s       :     3.925455  s :     3.925455
      pz      :     1.443426  p :     4.707203
      px      :     1.631888
      py      :     1.631888
      dz2     :     0.007068  d :     0.025151
      dxz     :     0.008951
      dyz     :     0.008951
      dx2y2   :     0.000091
      dxy     :     0.000091
      f0      :     0.001361  f :     0.004967
      f+1     :     0.001271
      f-1     :     0.001271
      f+2     :     0.000532
      f-2     :     0.000532
      f+3     :     0.000000
      f-3     :     0.000000

SPIN
  0 Cos       :     0.242601  s :     0.242601
      pz      :     0.004607  p :     0.050560
      px      :     0.022976
      py      :     0.022976
      dz2     :     0.601754  d :     1.998472
      dxz     :     0.698712
      dyz     :     0.698712
      dx2y2   :    -0.000353
      dxy     :    -0.000353
      f0      :     0.001153  f :     0.006362
      f+1     :     0.002618
      f-1     :     0.002618
      f+2     :    -0.000014
      f-2     :    -0.000014
      f+3     :    -0.000000
      f-3     :    -0.000000
      g0      :    -0.000093  g :    -0.000189
      g+1     :    -0.000061
      g-1     :    -0.000061
      g+2     :     0.000013
      g-2     :     0.000013
      g+3     :     0.000000
      g-3     :     0.000000
      g+4     :     0.000000
      g-4     :     0.000000
  1 O s       :    -0.005820  s :    -0.005820
      pz      :     0.155033  p :     0.713169
      px      :     0.279068
      py      :     0.279068
      dz2     :     0.000590  d :    -0.004487
      dxz     :    -0.002956
      dyz     :    -0.002956
      dx2y2   :     0.000417
      dxy     :     0.000417
      f0      :     0.000175  f :    -0.000667
      f+1     :    -0.000358
      f-1     :    -0.000358
      f+2     :    -0.000064
      f-2     :    -0.000064
      f+3     :     0.000000
      f-3     :     0.000000


                     *******************************
                     * LOEWDIN POPULATION ANALYSIS *
                     *******************************

-------------------------------------------
LOEWDIN ATOMIC CHARGES AND SPIN POPULATIONS
-------------------------------------------
   0 Co:    0.574197    2.332208
   1 O :   -0.574197    0.667792

----------------------------------------------------
LOEWDIN REDUCED ORBITAL CHARGES AND SPIN POPULATIONS
----------------------------------------------------
CHARGE
  0 Cos       :     6.134175  s :     6.134175
      pz      :     4.139383  p :    12.283749
      px      :     4.072183
      py      :     4.072183
      dz2     :     1.313531  d :     7.833548
      dxz     :     1.281095
      dyz     :     1.281095
      dx2y2   :     1.978914
      dxy     :     1.978914
      f0      :     0.067065  f :     0.164069
      f+1     :     0.047025
      f-1     :     0.047025
      f+2     :     0.001477
      f-2     :     0.001477
      f+3     :     0.000000
      f-3     :     0.000000
      g0      :     0.005021  g :     0.010262
      g+1     :     0.002583
      g-1     :     0.002583
      g+2     :     0.000037
      g-2     :     0.000037
      g+3     :     0.000000
      g-3     :     0.000000
      g+4     :     0.000000
      g-4     :     0.000000
  1 O s       :     3.555506  s :     3.555506
      pz      :     1.570843  p :     4.585437
      px      :     1.507297
      py      :     1.507297
      dz2     :     0.143151  d :     0.271128
      dxz     :     0.054189
      dyz     :     0.054189
      dx2y2   :     0.009799
      dxy     :     0.009799
      f0      :     0.071325  f :     0.162125
      f+1     :     0.035628
      f-1     :     0.035628
      f+2     :     0.009772
      f-2     :     0.009772
      f+3     :     0.000000
      f-3     :     0.000000

SPIN
  0 Cos       :     0.217218  s :     0.217218
      pz      :     0.007294  p :     0.121330
      px      :     0.057018
      py      :     0.057018
      dz2     :     0.595663  d :     1.953032
      dxz     :     0.677082
      dyz     :     0.677082
      dx2y2   :     0.001602
      dxy     :     0.001602
      f0      :     0.003315  f :     0.038379
      f+1     :     0.017653
      f-1     :     0.017653
      f+2     :    -0.000121
      f-2     :    -0.000121
      f+3     :    -0.000000
      f-3     :    -0.000000
      g0      :     0.000406  g :     0.002250
      g+1     :     0.000913
      g-1     :     0.000913
      g+2     :     0.000009
      g-2     :     0.000009
      g+3     :     0.000000
      g-3     :     0.000000
      g+4     :     0.000000
      g-4     :     0.000000
  1 O s       :     0.015077  s :     0.015077
      pz      :     0.151122  p :     0.596777
      px      :     0.222827
      py      :     0.222827
      dz2     :     0.004903  d :     0.026441
      dxz     :     0.011777
      dyz     :     0.011777
      dx2y2   :    -0.001008
      dxy     :    -0.001008
      f0      :     0.005002  f :     0.029497
      f+1     :     0.012730
      f-1     :     0.012730
      f+2     :    -0.000483
      f-2     :    -0.000483
      f+3     :     0.000000
      f-3     :     0.000000


                      *****************************
                      * MAYER POPULATION ANALYSIS *
                      *****************************

  NA   - Mulliken gross atomic population
  ZA   - Total nuclear charge
  QA   - Mulliken gross atomic charge
  VA   - Mayer's total valence
  BVA  - Mayer's bonded valence
  FA   - Mayer's free valence

  ATOM       NA         ZA         QA         VA         BVA        FA
  0 Co    26.3372    27.0000     0.6628     3.8756     1.9597     1.9159
  1 O      8.6628     8.0000    -0.6628     2.1418     1.9597     0.1821

  Mayer bond orders larger than 0.100000
B(  0-Co,  1-O ) :   1.9597 

-------
TIMINGS
-------

Total SCF time: 0 days 0 hours 3 min 52 sec 

Total time                  ....     232.870 sec
Sum of individual times     ....     232.533 sec  ( 99.9%)

Fock matrix formation       ....     232.126 sec  ( 99.7%)
  XC integration            ....       0.601 sec  (  0.3% of F)
    Basis function eval.    ....       0.085 sec  ( 14.2% of XC)
    Density eval.           ....       0.096 sec  ( 15.9% of XC)
    XC-Functional eval.     ....       0.022 sec  (  3.7% of XC)
    XC-Potential eval.      ....       0.258 sec  ( 42.9% of XC)
Diagonalization             ....       0.089 sec  (  0.0%)
Density matrix formation    ....       0.011 sec  (  0.0%)
Population analysis         ....       0.007 sec  (  0.0%)
Initial guess               ....       0.098 sec  (  0.0%)
Orbital Transformation      ....       0.000 sec  (  0.0%)
Orbital Orthonormalization  ....       0.000 sec  (  0.0%)
DIIS solution               ....       0.030 sec  (  0.0%)
Grid generation             ....       0.171 sec  (  0.1%)

-------------------------   --------------------
FINAL SINGLE POINT ENERGY     -1457.871494266006
-------------------------   --------------------


                            ***************************************
                            *     ORCA property calculations      *
                            ***************************************

                                    ---------------------
                                    Active property flags
                                    ---------------------
   (+) Dipole Moment


------------------------------------------------------------------------------
                       ORCA ELECTRIC PROPERTIES CALCULATION
------------------------------------------------------------------------------

Dipole Moment Calculation                       ... on
Quadrupole Moment Calculation                   ... off
Polarizability Calculation                      ... off
GBWName                                         ... 41_CoO.gbw
Electron density file                           ... 41_CoO.scfp
The origin for moment calculation is the CENTER OF MASS  = ( 0.000000,  0.000000  1.009712)

-------------
DIPOLE MOMENT
-------------
                                X             Y             Z
Electronic contribution:     -0.00000      -0.00000      -3.97708
Nuclear contribution   :      0.00000       0.00000       1.61802
                        -----------------------------------------
Total Dipole Moment    :     -0.00000      -0.00000      -2.35906
                        -----------------------------------------
Magnitude (a.u.)       :      2.35906
Magnitude (Debye)      :      5.99626



--------------------
Rotational spectrum 
--------------------
 
Rotational constants in cm-1:     0.000000     0.507011     0.507011 
Rotational constants in MHz :     0.000000 15199.819890 15199.819890 

 Dipole components along the rotational axes: 
x,y,z [a.u.] :    -2.359062    -0.000000    -0.000000 
x,y,z [Debye]:    -5.996259    -0.000000    -0.000000 

 

Timings for individual modules:

Sum of individual times         ...      236.325 sec (=   3.939 min)
GTO integral calculation        ...        2.923 sec (=   0.049 min)   1.2 %
SCF iterations                  ...      233.402 sec (=   3.890 min)  98.8 %
                             ****ORCA TERMINATED NORMALLY****
TOTAL RUN TIME: 0 days 0 hours 3 minutes 56 seconds 940 msec
