
                                 *****************
                                 * O   R   C   A *
                                 *****************

           --- An Ab Initio, DFT and Semiempirical electronic structure package ---

                  #######################################################
                  #                        -***-                        #
                  #          Department of theory and spectroscopy      #
                  #               Directorship: Frank Neese             #
                  #        Max Planck Institute fuer Kohlenforschung    #
                  #                Kaiser Wilhelm Platz 1               #
                  #                 D-45470 Muelheim/Ruhr               #
                  #                      Germany                        #
                  #                                                     #
                  #                  All rights reserved                #
                  #                        -***-                        #
                  #######################################################


                         Program Version 4.2.0 -  RELEASE  -


 With contributions from (in alphabetic order):
   Daniel Aravena         : Magnetic Suceptibility
   Michael Atanasov       : Ab Initio Ligand Field Theory (pilot matlab implementation)
   Alexander A. Auer      : GIAO ZORA, VPT2
   Ute Becker             : Parallelization
   Giovanni Bistoni       : ED, misc. LED, open-shell LED, HFLED
   Martin Brehm           : Molecular dynamics
   Dmytro Bykov           : SCF Hessian
   Vijay G. Chilkuri      : MRCI spin determinant printing, contributions to CSF-ICE
   Dipayan Datta          : RHF DLPNO-CCSD density
   Achintya Kumar Dutta   : EOM-CC, STEOM-CC
   Dmitry Ganyushin       : Spin-Orbit,Spin-Spin,Magnetic field MRCI
   Miquel Garcia          : C-PCM Hessian, Gaussian charge scheme
   Yang Guo               : DLPNO-NEVPT2, CIM, IAO-localization
   Andreas Hansen         : Spin unrestricted coupled pair/coupled cluster methods
   Benjamin Helmich-Paris : CASSCF linear response (MC-RPA)
   Lee Huntington         : MR-EOM, pCC
   Robert Izsak           : Overlap fitted RIJCOSX, COSX-SCS-MP3, EOM
   Christian Kollmar      : KDIIS, OOCD, Brueckner-CCSD(T), CCSD density
   Simone Kossmann        : Meta GGA functionals, TD-DFT gradient, OOMP2, MP2 Hessian
   Martin Krupicka        : AUTO-CI
   Lucas Lang             : DCDCAS
   Dagmar Lenk            : GEPOL surface, SMD
   Dimitrios Liakos       : Extrapolation schemes; Compound Job, initial MDCI parallelization
   Dimitrios Manganas     : Further ROCIS development; embedding schemes
   Dimitrios Pantazis     : SARC Basis sets
   Taras Petrenko         : DFT Hessian,TD-DFT gradient, ASA, ECA, R-Raman, ABS, FL, XAS/XES, NRVS
   Peter Pinski           : DLPNO-MP2, DLPNO-MP2 Gradient
   Christoph Reimann      : Effective Core Potentials
   Marius Retegan         : Local ZFS, SOC
   Christoph Riplinger    : Optimizer, TS searches, QM/MM, DLPNO-CCSD(T), (RO)-DLPNO pert. Triples
   Tobias Risthaus        : Range-separated hybrids, TD-DFT gradient, RPA, STAB
   Michael Roemelt        : Original ROCIS implementation
   Masaaki Saitow         : Open-shell DLPNO-CCSD energy and density
   Barbara Sandhoefer     : DKH picture change effects
   Avijit Sen             : IP-ROCIS
   Kantharuban Sivalingam : CASSCF convergence, NEVPT2, FIC-MRCI
   Bernardo de Souza      : ESD, SOC TD-DFT
   Georgi Stoychev        : AutoAux, RI-MP2 NMR
   Willem Van den Heuvel  : Paramagnetic NMR
   Boris Wezisla          : Elementary symmetry handling
   Frank Wennmohs         : Technical directorship


 We gratefully acknowledge several colleagues who have allowed us to
 interface, adapt or use parts of their codes:
   Stefan Grimme, W. Hujo, H. Kruse,             : VdW corrections, initial TS optimization,
                  C. Bannwarth                     DFT functionals, gCP, sTDA/sTD-DF
   Ed Valeev, F. Pavosevic, A. Kumar             : LibInt (2-el integral package), F12 methods
   Garnet Chan, S. Sharma, J. Yang, R. Olivares  : DMRG
   Ulf Ekstrom                                   : XCFun DFT Library
   Mihaly Kallay                                 : mrcc  (arbitrary order and MRCC methods)
   Andreas Klamt, Michael Diedenhofen            : otool_cosmo (COSMO solvation model)
   Jiri Pittner, Ondrej Demel                    : Mk-CCSD
   Frank Weinhold                                : gennbo (NPA and NBO analysis)
   Christopher J. Cramer and Donald G. Truhlar   : smd solvation model
   Lars Goerigk                                  : TD-DFT with DH, B97 family of functionals
   V. Asgeirsson, H. Jonsson                     : NEB implementation
   FAccTs GmbH                                   : IRC, NEB, NEB-TS, Multilevel, MM, QM/MM, CI optimization
   S Lehtola, MJT Oliveira, MAL Marques          : LibXC Library


 Your calculation uses the libint2 library for the computation of 2-el integrals
 For citations please refer to: http://libint.valeyev.net

 Your ORCA version has been built with support for libXC version: 4.2.3
 For citations please refer to: https://tddft.org/programs/libxc/

 This ORCA versions uses:
   CBLAS   interface :  Fast vector & matrix operations
   LAPACKE interface :  Fast linear algebra routines
   SCALAPACK package :  Parallel linear algebra routines


Your calculation utilizes the DFT-NL dispersion correction.
Cite in your paper:
Vydrov, O. A.; Van Voorhis, T. J. Chem. Phys. 2010, 133, 244103
Hujo, W.; Grimme, S. J. Chem. Theory Comput. 2011, 7, 3866 
   

----- Orbital basis set information -----
Your calculation utilizes the basis: aug-cc-pVTZ 
    H, B-Ne : Obtained from the ccRepo (grant-hill.group.shef.ac.uk/ccrepo) Feb. 2017
              R. A. Kendall, T. H. Dunning, Jr., R. J. Harrison, J. Chem. Phys. 96, 6796 (1992)
         He : Obtained from the ccRepo (grant-hill.group.shef.ac.uk/ccrepo) Feb. 2017
              D. E. Woon, T. H. Dunning, Jr., J. Chem. Phys. 100, 2975 (1994)
  Li-Be, Na : Obtained from the ccRepo (grant-hill.group.shef.ac.uk/ccrepo) Feb. 2017
              B. P. Prascher, D. E. Woon, K. A. Peterson, T. H. Dunning, Jr., A. K. Wilson, Theor. Chem. Acc. 128, 69 (2011)
         Mg : Obtained from the Peterson Research Group Website (tyr0.chem.wsu.edu/~kipeters) Feb. 2017
              B. P. Prascher, D. E. Woon, K. A. Peterson, T. H. Dunning, Jr., A. K. Wilson, Theor. Chem. Acc. 128, 69 (2011)
      Al-Ar : Obtained from the ccRepo (grant-hill.group.shef.ac.uk/ccrepo) Feb. 2017
              D. E. Woon, T. H. Dunning, Jr., J. Chem. Phys. 98, 1358 (1993)
      Sc-Zn : Obtained from the ccRepo (grant-hill.group.shef.ac.uk/ccrepo) Feb. 2017
              N. B. Balabanov, K. A. Peterson, J. Chem. Phys. 123, 064107 (2005)
              N. B. Balabanov, K. A. Peterson, J. Chem. Phys. 125, 074110 (2006)
      Ga-Kr : Obtained from the ccRepo (grant-hill.group.shef.ac.uk/ccrepo) Feb. 2017
              A. K. Wilson, D. E. Woon, K. A. Peterson, T. H. Dunning, Jr., J. Chem. Phys. 110, 7667 (1999)
     Ag, Au : Obtained from the Peterson Research Group Website (tyr0.chem.wsu.edu/~kipeters) Feb. 2017
              K. A. Peterson, C. Puzzarini, Theor. Chem. Acc. 114, 283 (2005)

----- AuxJK basis set information -----
Your calculation utilizes the auxiliary basis: def2/JK
   H-Ba, Hf-Rn: F. Weigend, J. Comput. Chem. 29, 167 (2008).

================================================================================
                                        WARNINGS
                       Please study these warnings very carefully!
================================================================================


WARNING: your system is open-shell and RHF/RKS was chosen
  ===> : WILL SWITCH to UHF/UKS


INFO   : the flag for use of LIBINT has been found!

================================================================================
                                       INPUT FILE
================================================================================
NAME = 45_NiCl.in
|  1> #
|  2> # 45_NiCl wb97m-v/aug-cc-pvtz
|  3> #
|  4> ! wb97m-v aug-cc-pvtz def2/jk grid4 nofinalgrid
|  5> 
|  6> *xyz 0 2
|  7>   Ni  0.00000000000000      0.00000000000000     -0.04672403924217
|  8>   Cl  0.00000000000000      0.00000000000000      2.04672403924217
|  9> *
| 10> 
| 11> %pal
| 12> nprocs 24
| 13> end
| 14> 
| 15> 
| 16>                          ****END OF INPUT****
================================================================================

                       ****************************
                       * Single Point Calculation *
                       ****************************

---------------------------------
CARTESIAN COORDINATES (ANGSTROEM)
---------------------------------
  Ni     0.000000    0.000000   -0.046724
  Cl     0.000000    0.000000    2.046724

----------------------------
CARTESIAN COORDINATES (A.U.)
----------------------------
  NO LB      ZA    FRAG     MASS         X           Y           Z
   0 Ni   28.0000    0    58.700    0.000000    0.000000   -0.088296
   1 Cl   17.0000    0    35.453    0.000000    0.000000    3.867748

--------------------------------
INTERNAL COORDINATES (ANGSTROEM)
--------------------------------
 Ni     0   0   0     0.000000000000     0.00000000     0.00000000
 Cl     1   0   0     2.093448078484     0.00000000     0.00000000

---------------------------
INTERNAL COORDINATES (A.U.)
---------------------------
 Ni     0   0   0     0.000000000000     0.00000000     0.00000000
 Cl     1   0   0     3.956043543919     0.00000000     0.00000000

---------------------
BASIS SET INFORMATION
---------------------
There are 2 groups of distinct atoms

 Group   1 Type Ni  : 116s77p23d3f2g contracted to 8s7p5d3f2g pattern {19191919191911/151515151511/77711/111/11}
 Group   2 Type Cl  : 42s17p3d2f contracted to 6s5p3d2f pattern {131313111/77111/111/11}

Atom   0Ni   basis set group =>   1
Atom   1Cl   basis set group =>   2
----------------------------------
AUXILIARY/JK BASIS SET INFORMATION
----------------------------------
There are 2 groups of distinct atoms

 Group   1 Type Ni  : 19s14p12d10f7g3h1i contracted to 16s13p11d9f5g3h1i pattern {4111111111111111/2111111111111/21111111111/211111111/31111/111/1}
 Group   2 Type Cl  : 16s12p10d4f1g contracted to 13s11p9d4f1g pattern {4111111111111/21111111111/211111111/1111/1}

Atom   0Ni   basis set group =>   1
Atom   1Cl   basis set group =>   2


           ************************************************************
           *        Program running with 24 parallel MPI-processes    *
           *              working on a common directory               *
           ************************************************************
------------------------------------------------------------------------------
                           ORCA GTO INTEGRAL CALCULATION
------------------------------------------------------------------------------

                         BASIS SET STATISTICS AND STARTUP INFO

 # of primitive gaussian shells          ...  285
 # of primitive gaussian functions       ...  623
 # of contracted shells                  ...   41
 # of contracted basis functions         ...  143
 Highest angular momentum                ...    4
 Maximum contraction depth               ...   19
 Integral package used                   ... LIBINT
 Integral threshhold            Thresh   ...  1.000e-10
 Primitive cut-off              TCut     ...  1.000e-11


------------------------------ INTEGRAL EVALUATION ----------------------------


 * One electron integrals 
 Pre-screening matrix                    ... done
 Shell pair data                         ... done (   0.001 sec)



           ************************************************************
           *        Program running with 24 parallel MPI-processes    *
           *              working on a common directory               *
           ************************************************************
-------------------------------------------------------------------------------
                                 ORCA SCF
-------------------------------------------------------------------------------

------------
SCF SETTINGS
------------
Hamiltonian:
 Density Functional     Method          .... DFT(GTOs)
 Exchange Functional    Exchange        .... WB97M-V
 Correlation Functional Correlation     .... WB97M-V
 Gradients option       PostSCFGGA      .... off
 Hybrid DFT is turned on
   Fraction HF Exchange ScalHFX         ....  0.150000
   Scaling of DF-GGA-X  ScalDFX         ....  0.000000
   Scaling of DF-GGA-C  ScalDFC         ....  1.000000
   Scaling of DF-LDA-C  ScalLDAC        ....  1.000000
   Perturbative correction              ....  0.000000
   Density functional embedding theory  .... OFF
 Long-range corrected/Screened/Range-Separated Hybrid DFT is turned on
   Amount of maximum screened exact exchange              ....  0.850000
   Range separation parameter mu (erf(mu*r12)/r12)        ....  0.300000
   NL short-range parameter             ....  6.000000
   NL long-range parameter              ....  0.010000


General Settings:
 Integral files         IntName         .... 45_NiCl
 Hartree-Fock type      HFTyp           .... UHF
 Total Charge           Charge          ....    0
 Multiplicity           Mult            ....    2
 Number of Electrons    NEL             ....   45
 Basis Dimension        Dim             ....  143
 Nuclear Repulsion      ENuc            ....    120.3222347569 Eh

Convergence Acceleration:
 DIIS                   CNVDIIS         .... on
   Start iteration      DIISMaxIt       ....    12
   Startup error        DIISStart       ....  0.200000
   # of expansion vecs  DIISMaxEq       ....     5
   Bias factor          DIISBfac        ....   1.050
   Max. coefficient     DIISMaxC        ....  10.000
 Newton-Raphson         CNVNR           .... off
 SOSCF                  CNVSOSCF        .... off
 Level Shifting         CNVShift        .... on
   Level shift para.    LevelShift      ....    0.2500
   Turn off err/grad.   ShiftErr        ....    0.0010
 Zerner damping         CNVZerner       .... off
 Static damping         CNVDamp         .... on
   Fraction old density DampFac         ....    0.7000
   Max. Damping (<1)    DampMax         ....    0.9800
   Min. Damping (>=0)   DampMin         ....    0.0000
   Turn off err/grad.   DampErr         ....    0.1000
 Fernandez-Rico         CNVRico         .... off

SCF Procedure:
 Maximum # iterations   MaxIter         ....   125
 SCF integral mode      SCFMode         .... Direct
   Integral package                     .... LIBINT
 Reset frequency        DirectResetFreq ....    20
 Integral Threshold     Thresh          ....  1.000e-10 Eh
 Primitive CutOff       TCut            ....  1.000e-11 Eh

Convergence Tolerance:
 Convergence Check Mode ConvCheckMode   .... Total+1el-Energy
 Convergence forced     ConvForced      .... 0
 Energy Change          TolE            ....  1.000e-06 Eh
 1-El. energy change                    ....  1.000e-03 Eh
 DIIS Error             TolErr          ....  1.000e-06


Diagonalization of the overlap matrix:
Smallest eigenvalue                        ... 2.313e-04
Time for diagonalization                   ...    0.005 sec
Threshold for overlap eigenvalues          ... 1.000e-08
Number of eigenvalues below threshold      ... 0
Time for construction of square roots      ...    0.002 sec
Total time needed                          ...    0.007 sec

-------------------
DFT GRID GENERATION
-------------------

General Integration Accuracy     IntAcc      ...  4.670
Radial Grid Type                 RadialGrid  ... Gauss-Chebyshev
Angular Grid (max. acc.)         AngularGrid ... Lebedev-302
Angular grid pruning method      GridPruning ... 3 (G Style)
Weight generation scheme         WeightScheme... Becke
Basis function cutoff            BFCut       ...    1.0000e-10
Integration weight cutoff        WCut        ...    1.0000e-14
Grids for H and He will be reduced by one unit

# of grid points (after initial pruning)     ...  16402 (   0.0 sec)
# of grid points (after weights+screening)   ...  16374 (   0.0 sec)
nearest neighbour list constructed           ...    0.0 sec
Grid point re-assignment to atoms done       ...    0.0 sec
Grid point division into batches done        ...    0.1 sec
Reduced shell lists constructed in    0.1 sec

Total number of grid points                  ...    16374
Total number of batches                      ...      256
Average number of points per batch           ...       63
Average number of grid points per atom       ...     8187
Average number of shells per batch           ...    15.25 (37.20%)
Average number of basis functions per batch  ...    36.92 (25.82%)
Average number of large shells per batch     ...     7.92 (51.91%)
Average number of large basis fcns per batch ...    19.25 (52.14%)
Maximum spatial batch extension              ...  23.02, 23.02, 16.62 au
Average spatial batch extension              ...   0.79,  0.79,  0.61 au

Time for grid setup =    0.147 sec

------------------------------
INITIAL GUESS: MODEL POTENTIAL
------------------------------
Loading Hartree-Fock densities                     ... done
Calculating cut-offs                               ... done
Setting up the integral package                    ... done
Initializing the effective Hamiltonian             ... done
Starting the Coulomb interaction                   ... done (   0.0 sec)
Reading the grid                                   ... done
Mapping shells                                     ... done
Starting the XC term evaluation                    ... done (   0.0 sec)
  promolecular density results
     # of electrons  =     45.000025637
     EX              =    -88.908880485
     EC              =     -1.940581708
     EX+EC           =    -90.849462193
Transforming the Hamiltonian                       ... done (   0.0 sec)
Diagonalizing the Hamiltonian                      ... done (   0.0 sec)
Back transforming the eigenvectors                 ... done (   0.0 sec)
Now organizing SCF variables                       ... done
                      ------------------
                      INITIAL GUESS DONE (   0.2 sec)
                      ------------------
--------------
SCF ITERATIONS
--------------
ITER       Energy         Delta-E        Max-DP      RMS-DP      [F,P]     Damp
               ***  Starting incremental Fock matrix formation  ***
  0  -1968.5927183996   0.000000000000 0.02742547  0.00077093  0.3344307 0.7000
  1  -1968.6327310565  -0.040012656933 0.01669168  0.00041524  0.0640525 0.7000
                               ***Turning on DIIS***
  2  -1968.6482011416  -0.015470085128 0.03590924  0.00086577  0.0419651 0.0000
  3  -1968.6882409626  -0.040039820948 0.01387599  0.00025723  0.0217725 0.0000
  4  -1968.6904665588  -0.002225596172 0.01165739  0.00011571  0.0150852 0.0000
  5  -1968.6912261085  -0.000759549732 0.00806533  0.00008451  0.0094286 0.0000
  6  -1968.6917131293  -0.000487020789 0.00897098  0.00009393  0.0070426 0.0000
  7  -1968.6920124382  -0.000299308908 0.00451346  0.00004979  0.0033168 0.0000
  8  -1968.6920874588  -0.00007502066259.02432694  0.42370576  0.0017288 0.0000
  9  -1968.0693163948   0.622771064092 0.17791826  0.00139886  0.4780437 0.7000
 10  -1968.0696275447  -0.000311149964 0.26312130  0.00206911  0.4780280 0.7000
 11  -1968.0691015012   0.000526043475 1.70355059  0.01346167  0.4781051 0.7000
 12  -1968.0661296103   0.002971890927 2.33374991  0.01829098  0.4781217 0.7000
 13  -1968.0700691428  -0.00393953247017.54334436  0.12592642  0.4782252 0.7000
 14  -1968.3058136051  -0.23574446229140.93607536  0.29375393  0.0698434 0.0000
 15  -1968.4998311611  -0.194017556040 0.01396454  0.00017356  0.4501792 0.7000
 16  -1968.5319629055  -0.032131744352 0.01540073  0.00016989  0.4081730 0.7000
 17  -1968.5609005633  -0.028937657848 0.01353926  0.00014020  0.3677057 0.7000
 18  -1968.5831976704  -0.022297107038 0.00960431  0.00008226  0.3339715 0.7000
 19  -1968.5953124738  -0.012114803458 0.02053453  0.00037634  0.3138855 0.7000
               *** Restarting incremental Fock matrix formation ***
                                   *** Resetting DIIS ***
 20  -1968.6382121976  -0.042899723738 0.01935236  0.00045615  0.1993482 0.7000
 21  -1968.6586075420  -0.020395344460 0.03397558  0.00082427  0.0325033 0.0000
 22  -1968.6858795198  -0.027271977786 0.01109014  0.00023701  0.0855679 0.0000
 23  -1968.6916310933  -0.005751573536 0.00530250  0.00008058  0.0188824 0.0000
 24  -1968.6920372198  -0.000406126425 0.00259639  0.00003454  0.0043533 0.0000
 25  -1968.6920996699  -0.000062450101 0.00476452  0.00004222  0.0018183 0.0000
 26  -1968.6921186603  -0.000018990448 0.00315955  0.00002707  0.0010417 0.0000
 27  -1968.6921209974  -0.000002337119 0.00177106  0.00001713  0.0005077 0.0000
 28  -1968.6921191903   0.000001807111 0.00046695  0.00000449  0.0001395 0.0000
 29  -1968.6921188447   0.000000345624 0.00008934  0.00000111  0.0000726 0.0000
 30  -1968.6921189506  -0.000000105938 0.00069712  0.00000523  0.0000446 0.0000
                 **** Energy Check signals convergence ****

               *****************************************************
               *                     SUCCESS                       *
               *           SCF CONVERGED AFTER  31 CYCLES          *
               *****************************************************


Setting up the DFT-NL grid :

General Integration Accuracy     IntAcc      ...  4.340
Radial Grid Type                 RadialGrid  ... Gauss-Chebyshev
Angular Grid (max. acc.)         AngularGrid ... Lebedev-110
Angular grid pruning method      GridPruning ... 3 (G Style)
Weight generation scheme         WeightScheme... Becke
Basis function cutoff            BFCut       ...    1.0000e-10
Integration weight cutoff        WCut        ...    1.0000e-14
Grids for H and He will be reduced by one unit

# of grid points (after initial pruning)     ...   4756 (   0.0 sec)
# of grid points (after weights+screening)   ...   4732 (   0.0 sec)
nearest neighbour list constructed           ...    0.0 sec
Grid point re-assignment to atoms done       ...    0.0 sec
Grid point division into batches done        ...    0.0 sec
Reduced shell lists constructed in    0.0 sec

Total number of grid points                  ...     4732
Total number of batches                      ...       75
Average number of points per batch           ...       63
Average number of grid points per atom       ...     2366
Average number of shells per batch           ...    23.20 (56.59%)
Average number of basis functions per batch  ...    71.20 (49.79%)
Average number of large shells per batch     ...    14.40 (62.07%)
Average number of large basis fcns per batch ...    35.20 (49.44%)
Maximum spatial batch extension              ...  17.39, 26.34, 14.94 au
Average spatial batch extension              ...   0.85,  1.17,  0.79 au

Final grid set up in    0.0 sec

-------------------------------------------------------------------------------
                         DFT-NL dispersion correction                          
-------------------------------------------------------------------------------

SC Energy -1968.692119030 
NL    Energy 0.189312356 
SC+NL Energy -1968.502806674 
NL done in    0.0 sec
-------------------------------------------------------------------------------

----------------
TOTAL SCF ENERGY
----------------

Total Energy       :        -1968.50280667 Eh          -53565.68460 eV

Components:
Nuclear Repulsion  :          120.32223476 Eh            3274.13446 eV
Electronic Energy  :        -2088.82504143 Eh          -56839.81906 eV
One Electron Energy:        -2973.91727991 Eh          -80924.40330 eV
Two Electron Energy:          885.09223848 Eh           24084.58425 eV

Virial components:
Potential Energy   :        -3934.29469710 Eh         -107057.60141 eV
Kinetic Energy     :         1965.79189042 Eh           53491.91681 eV
Virial Ratio       :            2.00137905


DFT components:
N(Alpha)           :       22.999999641077 electrons
N(Beta)            :       22.000000290996 electrons
N(Total)           :       44.999999932073 electrons
E(X)               :      -69.742272192283 Eh       
E(C)               :       -2.273297070034 Eh       
NL Energy, E(C,NL) :        0.189312356036 Eh       
E(XC)              :      -71.826256906282 Eh       
DFET-embed. en.    :        0.000000000000 Eh       

---------------
SCF CONVERGENCE
---------------

  Last Energy change         ...   -7.8941e-08  Tolerance :   1.0000e-06
  Last MAX-Density change    ...    2.4719e-04  Tolerance :   1.0000e-05
  Last RMS-Density change    ...    1.8940e-06  Tolerance :   1.0000e-06
  Last DIIS Error            ...    2.3415e-05  Tolerance :   1.0000e-06

             **** THE GBW FILE WAS UPDATED (45_NiCl.gbw) ****
             **** DENSITY FILE WAS UPDATED (45_NiCl.scfp) ****
             **** ENERGY FILE WAS UPDATED (45_NiCl.en.tmp) ****
----------------------
UHF SPIN CONTAMINATION
----------------------

Warning: in a DFT calculation there is little theoretical justification to 
         calculate <S**2> as in Hartree-Fock theory. We will do it anyways
         but you should keep in mind that the values have only limited relevance

Expectation value of <S**2>     :     0.752725
Ideal value S*(S+1) for S=0.5   :     0.750000
Deviation                       :     0.002725

             **** THE GBW FILE WAS UPDATED (45_NiCl.gbw) ****
             **** DENSITY FILE WAS UPDATED (45_NiCl.scfp) ****
----------------
ORBITAL ENERGIES
----------------
                 SPIN UP ORBITALS
  NO   OCC          E(Eh)            E(eV) 
   0   1.0000    -300.341450     -8172.7064 
   1   1.0000    -101.830761     -2770.9559 
   2   1.0000     -35.995827      -979.4962 
   3   1.0000     -31.340511      -852.8187 
   4   1.0000     -31.309021      -851.9618 
   5   1.0000     -31.309021      -851.9618 
   6   1.0000      -9.588287      -260.9105 
   7   1.0000      -7.289810      -198.3658 
   8   1.0000      -7.286605      -198.2786 
   9   1.0000      -7.286605      -198.2786 
  10   1.0000      -4.173447      -113.5653 
  11   1.0000      -2.780226       -75.6538 
  12   1.0000      -2.716217       -73.9120 
  13   1.0000      -2.716217       -73.9120 
  14   1.0000      -0.873438       -23.7675 
  15   1.0000      -0.471479       -12.8296 
  16   1.0000      -0.427862       -11.6427 
  17   1.0000      -0.427862       -11.6427 
  18   1.0000      -0.381842       -10.3904 
  19   1.0000      -0.376451       -10.2438 
  20   1.0000      -0.376448       -10.2437 
  21   1.0000      -0.355034        -9.6610 
  22   1.0000      -0.355034        -9.6610 
  23   0.0000      -0.051761        -1.4085 
  24   0.0000       0.010702         0.2912 
  25   0.0000       0.010702         0.2912 
  26   0.0000       0.021037         0.5724 
  27   0.0000       0.024039         0.6541 
  28   0.0000       0.067401         1.8341 
  29   0.0000       0.067401         1.8341 
  30   0.0000       0.088486         2.4078 
  31   0.0000       0.095619         2.6019 
  32   0.0000       0.095620         2.6020 
  33   0.0000       0.106002         2.8845 
  34   0.0000       0.121085         3.2949 
  35   0.0000       0.121085         3.2949 
  36   0.0000       0.144208         3.9241 
  37   0.0000       0.144209         3.9241 
  38   0.0000       0.156147         4.2490 
  39   0.0000       0.163513         4.4494 
  40   0.0000       0.253962         6.9107 
  41   0.0000       0.253962         6.9107 
  42   0.0000       0.310179         8.4404 
  43   0.0000       0.325550         8.8587 
  44   0.0000       0.349765         9.5176 
  45   0.0000       0.349768         9.5177 
  46   0.0000       0.406028        11.0486 
  47   0.0000       0.406028        11.0486 
  48   0.0000       0.428125        11.6499 
  49   0.0000       0.428127        11.6499 
  50   0.0000       0.439547        11.9607 
  51   0.0000       0.495900        13.4941 
  52   0.0000       0.495900        13.4941 
  53   0.0000       0.564489        15.3605 
  54   0.0000       0.656454        17.8630 
  55   0.0000       0.656454        17.8630 
  56   0.0000       0.671046        18.2601 
  57   0.0000       0.837235        22.7823 
  58   0.0000       0.869149        23.6508 
  59   0.0000       0.869151        23.6508 
  60   0.0000       0.880616        23.9628 
  61   0.0000       0.880616        23.9628 
  62   0.0000       0.883880        24.0516 
  63   0.0000       0.984963        26.8022 
  64   0.0000       0.984963        26.8022 
  65   0.0000       1.085086        29.5267 
  66   0.0000       1.085097        29.5270 
  67   0.0000       1.088939        29.6315 
  68   0.0000       1.106668        30.1140 
  69   0.0000       1.106668        30.1140 
  70   0.0000       1.255128        34.1538 
  71   0.0000       1.255128        34.1538 
  72   0.0000       1.275469        34.7073 
  73   0.0000       1.356364        36.9085 
  74   0.0000       1.356364        36.9085 
  75   0.0000       1.480842        40.2958 
  76   0.0000       1.497026        40.7361 
  77   0.0000       1.497034        40.7364 
  78   0.0000       1.532435        41.6997 
  79   0.0000       1.532435        41.6997 
  80   0.0000       1.551653        42.2226 
  81   0.0000       1.551655        42.2227 
  82   0.0000       1.698377        46.2152 
  83   0.0000       1.868612        50.8475 
  84   0.0000       1.868612        50.8475 
  85   0.0000       2.103199        57.2310 
  86   0.0000       2.337489        63.6063 
  87   0.0000       2.337524        63.6073 
  88   0.0000       2.455727        66.8237 
  89   0.0000       2.455727        66.8237 
  90   0.0000       2.525978        68.7354 
  91   0.0000       2.552807        69.4654 
  92   0.0000       2.552807        69.4654 
  93   0.0000       2.856632        77.7329 
  94   0.0000       2.856632        77.7329 
  95   0.0000       2.891397        78.6789 
  96   0.0000       2.891470        78.6809 
  97   0.0000       2.928562        79.6902 
  98   0.0000       2.962725        80.6198 
  99   0.0000       2.962725        80.6198 
 100   0.0000       3.224198        87.7349 
 101   0.0000       3.732045       101.5541 
 102   0.0000       3.970373       108.0394 
 103   0.0000       3.970373       108.0394 
 104   0.0000       4.021211       109.4227 
 105   0.0000       4.021228       109.4232 
 106   0.0000       4.063112       110.5629 
 107   0.0000       4.063112       110.5629 
 108   0.0000       4.130571       112.3986 
 109   0.0000       4.130571       112.3986 
 110   0.0000       4.176807       113.6567 
 111   0.0000       4.490766       122.1999 
 112   0.0000       5.153885       140.2444 
 113   0.0000       5.154028       140.2482 
 114   0.0000       5.155004       140.2748 
 115   0.0000       5.155004       140.2748 
 116   0.0000       5.164780       140.5408 
 117   0.0000       5.164796       140.5413 
 118   0.0000       5.233391       142.4078 
 119   0.0000       5.233391       142.4078 
 120   0.0000       5.245249       142.7305 
 121   0.0000       5.808983       158.0705 
 122   0.0000       5.809002       158.0710 
 123   0.0000       5.958010       162.1257 
 124   0.0000       5.958010       162.1257 
 125   0.0000       6.139349       167.0602 
 126   0.0000       6.834800       185.9844 
 127   0.0000      12.640341       343.9612 
 128   0.0000      12.640341       343.9612 
 129   0.0000      12.651055       344.2527 
 130   0.0000      12.651191       344.2564 
 131   0.0000      12.688599       345.2743 
 132   0.0000      12.688599       345.2743 
 133   0.0000      12.702765       345.6598 
 134   0.0000      14.181262       385.8918 
 135   0.0000      14.181591       385.9007 
 136   0.0000      14.196306       386.3011 
 137   0.0000      14.196306       386.3011 
 138   0.0000      14.201068       386.4307 
 139   0.0000      14.201068       386.4307 
 140   0.0000      14.201971       386.4553 
 141   0.0000      14.202014       386.4565 
 142   0.0000      14.271715       388.3531 

                 SPIN DOWN ORBITALS
  NO   OCC          E(Eh)            E(eV) 
   0   1.0000    -300.340859     -8172.6903 
   1   1.0000    -101.830794     -2770.9568 
   2   1.0000     -35.970608      -978.8100 
   3   1.0000     -31.308312      -851.9425 
   4   1.0000     -31.295600      -851.5966 
   5   1.0000     -31.295600      -851.5966 
   6   1.0000      -9.588321      -260.9115 
   7   1.0000      -7.289936      -198.3693 
   8   1.0000      -7.286628      -198.2792 
   9   1.0000      -7.286628      -198.2792 
  10   1.0000      -4.125672      -112.2653 
  11   1.0000      -2.688796       -73.1659 
  12   1.0000      -2.684262       -73.0425 
  13   1.0000      -2.684262       -73.0425 
  14   1.0000      -0.872615       -23.7450 
  15   1.0000      -0.426839       -11.6149 
  16   1.0000      -0.415922       -11.3178 
  17   1.0000      -0.415922       -11.3178 
  18   1.0000      -0.346875        -9.4389 
  19   1.0000      -0.346875        -9.4389 
  20   1.0000      -0.346868        -9.4388 
  21   1.0000      -0.346867        -9.4387 
  22   0.0000      -0.056178        -1.5287 
  23   0.0000       0.007612         0.2071 
  24   0.0000       0.009307         0.2533 
  25   0.0000       0.011825         0.3218 
  26   0.0000       0.022164         0.6031 
  27   0.0000       0.034530         0.9396 
  28   0.0000       0.066795         1.8176 
  29   0.0000       0.066796         1.8176 
  30   0.0000       0.091880         2.5002 
  31   0.0000       0.091889         2.5004 
  32   0.0000       0.092093         2.5060 
  33   0.0000       0.112599         3.0640 
  34   0.0000       0.119498         3.2517 
  35   0.0000       0.119770         3.2591 
  36   0.0000       0.144320         3.9272 
  37   0.0000       0.144324         3.9273 
  38   0.0000       0.156063         4.2467 
  39   0.0000       0.163601         4.4518 
  40   0.0000       0.253497         6.8980 
  41   0.0000       0.253504         6.8982 
  42   0.0000       0.311405         8.4738 
  43   0.0000       0.328503         8.9390 
  44   0.0000       0.349091         9.4992 
  45   0.0000       0.349092         9.4993 
  46   0.0000       0.408023        11.1029 
  47   0.0000       0.408053        11.1037 
  48   0.0000       0.423542        11.5252 
  49   0.0000       0.423545        11.5252 
  50   0.0000       0.447810        12.1855 
  51   0.0000       0.495011        13.4699 
  52   0.0000       0.495018        13.4701 
  53   0.0000       0.562467        15.3055 
  54   0.0000       0.655663        17.8415 
  55   0.0000       0.655663        17.8415 
  56   0.0000       0.673921        18.3383 
  57   0.0000       0.841516        22.8988 
  58   0.0000       0.868828        23.6420 
  59   0.0000       0.868830        23.6421 
  60   0.0000       0.879004        23.9189 
  61   0.0000       0.879015        23.9192 
  62   0.0000       0.883248        24.0344 
  63   0.0000       0.989283        26.9198 
  64   0.0000       0.989283        26.9198 
  65   0.0000       1.085324        29.5332 
  66   0.0000       1.085332        29.5334 
  67   0.0000       1.094995        29.7963 
  68   0.0000       1.106814        30.1179 
  69   0.0000       1.106814        30.1179 
  70   0.0000       1.258039        34.2330 
  71   0.0000       1.258039        34.2330 
  72   0.0000       1.273459        34.6526 
  73   0.0000       1.357780        36.9471 
  74   0.0000       1.357780        36.9471 
  75   0.0000       1.500416        40.8284 
  76   0.0000       1.501778        40.8655 
  77   0.0000       1.501785        40.8657 
  78   0.0000       1.537198        41.8293 
  79   0.0000       1.537200        41.8293 
  80   0.0000       1.558376        42.4056 
  81   0.0000       1.558383        42.4058 
  82   0.0000       1.700613        46.2760 
  83   0.0000       1.871153        50.9166 
  84   0.0000       1.871153        50.9167 
  85   0.0000       2.118354        57.6433 
  86   0.0000       2.337582        63.6088 
  87   0.0000       2.337617        63.6098 
  88   0.0000       2.455773        66.8250 
  89   0.0000       2.455773        66.8250 
  90   0.0000       2.527026        68.7639 
  91   0.0000       2.552946        69.4692 
  92   0.0000       2.552946        69.4692 
  93   0.0000       2.856813        77.7378 
  94   0.0000       2.856813        77.7378 
  95   0.0000       2.891196        78.6735 
  96   0.0000       2.891271        78.6755 
  97   0.0000       2.929264        79.7093 
  98   0.0000       2.961759        80.5936 
  99   0.0000       2.961759        80.5936 
 100   0.0000       3.233948        88.0002 
 101   0.0000       3.764312       102.4321 
 102   0.0000       3.991865       108.6242 
 103   0.0000       3.991865       108.6242 
 104   0.0000       4.026137       109.5568 
 105   0.0000       4.026154       109.5572 
 106   0.0000       4.085402       111.1694 
 107   0.0000       4.085402       111.1694 
 108   0.0000       4.162887       113.2779 
 109   0.0000       4.162887       113.2779 
 110   0.0000       4.231128       115.1349 
 111   0.0000       4.526897       123.1831 
 112   0.0000       5.157632       140.3463 
 113   0.0000       5.157632       140.3463 
 114   0.0000       5.174194       140.7970 
 115   0.0000       5.174332       140.8007 
 116   0.0000       5.174441       140.8037 
 117   0.0000       5.174449       140.8039 
 118   0.0000       5.257044       143.0514 
 119   0.0000       5.257044       143.0514 
 120   0.0000       5.287116       143.8697 
 121   0.0000       5.835739       158.7985 
 122   0.0000       5.835763       158.7992 
 123   0.0000       5.975209       162.5937 
 124   0.0000       5.975210       162.5937 
 125   0.0000       6.140988       167.1048 
 126   0.0000       6.914164       188.1440 
 127   0.0000      12.668237       344.7203 
 128   0.0000      12.668375       344.7240 
 129   0.0000      12.675079       344.9064 
 130   0.0000      12.675079       344.9064 
 131   0.0000      12.760312       347.2257 
 132   0.0000      12.760312       347.2257 
 133   0.0000      12.810102       348.5806 
 134   0.0000      14.209346       386.6560 
 135   0.0000      14.209346       386.6560 
 136   0.0000      14.212511       386.7421 
 137   0.0000      14.212825       386.7506 
 138   0.0000      14.228921       387.1886 
 139   0.0000      14.228967       387.1899 
 140   0.0000      14.256134       387.9291 
 141   0.0000      14.256134       387.9291 
 142   0.0000      14.345263       390.3545 

                    ********************************
                    * MULLIKEN POPULATION ANALYSIS *
                    ********************************

--------------------------------------------
MULLIKEN ATOMIC CHARGES AND SPIN POPULATIONS
--------------------------------------------
   0 Ni:    0.503968    0.949621
   1 Cl:   -0.503968    0.050379
Sum of atomic charges         :   -0.0000000
Sum of atomic spin populations:    1.0000000

-----------------------------------------------------
MULLIKEN REDUCED ORBITAL CHARGES AND SPIN POPULATIONS
-----------------------------------------------------
CHARGE
  0 Nis       :     6.278802  s :     6.278802
      pz      :     4.089579  p :    12.182445
      px      :     4.046433
      py      :     4.046433
      dz2     :     1.042475  d :     9.025901
      dxz     :     1.992640
      dyz     :     1.992640
      dx2y2   :     1.999073
      dxy     :     1.999073
      f0      :     0.003208  f :     0.008681
      f+1     :     0.002661
      f-1     :     0.002661
      f+2     :     0.000075
      f-2     :     0.000075
      f+3     :     0.000000
      f-3     :     0.000000
      g0      :     0.000088  g :     0.000203
      g+1     :     0.000047
      g-1     :     0.000047
      g+2     :     0.000011
      g-2     :     0.000011
      g+3     :     0.000000
      g-3     :     0.000000
      g+4     :     0.000000
      g-4     :     0.000000
  1 Cls       :     5.925716  s :     5.925716
      pz      :     3.651678  p :    11.549794
      px      :     3.949058
      py      :     3.949058
      dz2     :     0.008186  d :     0.024298
      dxz     :     0.007598
      dyz     :     0.007598
      dx2y2   :     0.000458
      dxy     :     0.000458
      f0      :     0.000268  f :     0.004160
      f+1     :     0.001563
      f-1     :     0.001563
      f+2     :     0.000383
      f-2     :     0.000383
      f+3     :     0.000000
      f-3     :     0.000000

SPIN
  0 Nis       :     0.052309  s :     0.052309
      pz      :    -0.000062  p :    -0.003912
      px      :    -0.001925
      py      :    -0.001925
      dz2     :     0.900692  d :     0.901241
      dxz     :     0.000262
      dyz     :     0.000262
      dx2y2   :     0.000013
      dxy     :     0.000013
      f0      :     0.000201  f :    -0.000055
      f+1     :    -0.000123
      f-1     :    -0.000123
      f+2     :    -0.000005
      f-2     :    -0.000005
      f+3     :     0.000000
      f-3     :     0.000000
      g0      :     0.000036  g :     0.000038
      g+1     :     0.000009
      g-1     :     0.000009
      g+2     :    -0.000009
      g-2     :    -0.000009
      g+3     :    -0.000000
      g-3     :    -0.000000
      g+4     :     0.000000
      g-4     :     0.000000
  1 Cls       :     0.014254  s :     0.014254
      pz      :     0.030436  p :     0.034386
      px      :     0.001975
      py      :     0.001975
      dz2     :     0.001872  d :     0.001552
      dxz     :    -0.000155
      dyz     :    -0.000155
      dx2y2   :    -0.000005
      dxy     :    -0.000005
      f0      :     0.000263  f :     0.000187
      f+1     :    -0.000044
      f-1     :    -0.000044
      f+2     :     0.000006
      f-2     :     0.000006
      f+3     :    -0.000000
      f-3     :    -0.000000


                     *******************************
                     * LOEWDIN POPULATION ANALYSIS *
                     *******************************

-------------------------------------------
LOEWDIN ATOMIC CHARGES AND SPIN POPULATIONS
-------------------------------------------
   0 Ni:    0.097792    0.972138
   1 Cl:   -0.097792    0.027862

----------------------------------------------------
LOEWDIN REDUCED ORBITAL CHARGES AND SPIN POPULATIONS
----------------------------------------------------
CHARGE
  0 Nis       :     6.227599  s :     6.227599
      pz      :     4.219079  p :    12.403445
      px      :     4.092183
      py      :     4.092183
      dz2     :     1.164226  d :     9.207958
      dxz     :     2.028950
      dyz     :     2.028950
      dx2y2   :     1.992916
      dxy     :     1.992915
      f0      :     0.026895  f :     0.062360
      f+1     :     0.017554
      f-1     :     0.017554
      f+2     :     0.000179
      f-2     :     0.000179
      f+3     :     0.000000
      f-3     :     0.000000
      g0      :     0.000439  g :     0.000846
      g+1     :     0.000196
      g-1     :     0.000196
      g+2     :     0.000008
      g-2     :     0.000008
      g+3     :     0.000000
      g-3     :     0.000000
      g+4     :     0.000000
      g-4     :     0.000000
  1 Cls       :     5.620985  s :     5.620985
      pz      :     3.616778  p :    11.217455
      px      :     3.800339
      py      :     3.800339
      dz2     :     0.084112  d :     0.156852
      dxz     :     0.033126
      dyz     :     0.033126
      dx2y2   :     0.003243
      dxy     :     0.003244
      f0      :     0.039887  f :     0.102500
      f+1     :     0.027652
      f-1     :     0.027652
      f+2     :     0.003654
      f-2     :     0.003654
      f+3     :     0.000000
      f-3     :     0.000000

SPIN
  0 Nis       :     0.078705  s :     0.078705
      pz      :     0.010809  p :     0.007731
      px      :    -0.001539
      py      :    -0.001539
      dz2     :     0.879541  d :     0.885215
      dxz     :     0.002328
      dyz     :     0.002328
      dx2y2   :     0.000508
      dxy     :     0.000509
      f0      :     0.000572  f :     0.000455
      f+1     :    -0.000045
      f-1     :    -0.000045
      f+2     :    -0.000014
      f-2     :    -0.000014
      f+3     :     0.000000
      f-3     :     0.000000
      g0      :     0.000032  g :     0.000033
      g+1     :     0.000007
      g-1     :     0.000007
      g+2     :    -0.000006
      g-2     :    -0.000006
      g+3     :    -0.000000
      g-3     :    -0.000000
      g+4     :     0.000000
      g-4     :     0.000000
  1 Cls       :     0.002666  s :     0.002666
      pz      :     0.016857  p :     0.017306
      px      :     0.000225
      py      :     0.000225
      dz2     :     0.007142  d :     0.005137
      dxz     :    -0.000695
      dyz     :    -0.000695
      dx2y2   :    -0.000308
      dxy     :    -0.000308
      f0      :     0.003677  f :     0.002753
      f+1     :    -0.000281
      f-1     :    -0.000281
      f+2     :    -0.000181
      f-2     :    -0.000181
      f+3     :    -0.000000
      f-3     :    -0.000000


                      *****************************
                      * MAYER POPULATION ANALYSIS *
                      *****************************

  NA   - Mulliken gross atomic population
  ZA   - Total nuclear charge
  QA   - Mulliken gross atomic charge
  VA   - Mayer's total valence
  BVA  - Mayer's bonded valence
  FA   - Mayer's free valence

  ATOM       NA         ZA         QA         VA         BVA        FA
  0 Ni    27.4960    28.0000     0.5040     1.8204     0.9205     0.8999
  1 Cl    17.5040    17.0000    -0.5040     0.9258     0.9205     0.0053

  Mayer bond orders larger than 0.100000
B(  0-Ni,  1-Cl) :   0.9205 

-------
TIMINGS
-------

Total SCF time: 0 days 0 hours 8 min 30 sec 

Total time                  ....     510.226 sec
Sum of individual times     ....     509.862 sec  ( 99.9%)

Fock matrix formation       ....     509.350 sec  ( 99.8%)
  XC integration            ....       1.068 sec  (  0.2% of F)
    Basis function eval.    ....       0.149 sec  ( 14.0% of XC)
    Density eval.           ....       0.168 sec  ( 15.8% of XC)
    XC-Functional eval.     ....       0.039 sec  (  3.6% of XC)
    XC-Potential eval.      ....       0.457 sec  ( 42.8% of XC)
Diagonalization             ....       0.163 sec  (  0.0%)
Density matrix formation    ....       0.021 sec  (  0.0%)
Population analysis         ....       0.007 sec  (  0.0%)
Initial guess               ....       0.098 sec  (  0.0%)
Orbital Transformation      ....       0.000 sec  (  0.0%)
Orbital Orthonormalization  ....       0.000 sec  (  0.0%)
DIIS solution               ....       0.060 sec  (  0.0%)
Grid generation             ....       0.162 sec  (  0.0%)

-------------------------   --------------------
FINAL SINGLE POINT ENERGY     -1968.502806673537
-------------------------   --------------------


                            ***************************************
                            *     ORCA property calculations      *
                            ***************************************

                                    ---------------------
                                    Active property flags
                                    ---------------------
   (+) Dipole Moment


------------------------------------------------------------------------------
                       ORCA ELECTRIC PROPERTIES CALCULATION
------------------------------------------------------------------------------

Dipole Moment Calculation                       ... on
Quadrupole Moment Calculation                   ... off
Polarizability Calculation                      ... off
GBWName                                         ... 45_NiCl.gbw
Electron density file                           ... 45_NiCl.scfp
The origin for moment calculation is the CENTER OF MASS  = ( 0.000000,  0.000000  1.401339)

-------------
DIPOLE MOMENT
-------------
                                X             Y             Z
Electronic contribution:     -0.00000      -0.00000      -2.38843
Nuclear contribution   :      0.00000       0.00000       0.21916
                        -----------------------------------------
Total Dipole Moment    :     -0.00000      -0.00000      -2.16927
                        -----------------------------------------
Magnitude (a.u.)       :      2.16927
Magnitude (Debye)      :      5.51384



--------------------
Rotational spectrum 
--------------------
 
Rotational constants in cm-1:     0.000000     0.174027     0.174027 
Rotational constants in MHz :     0.000000  5217.185595  5217.185595 

 Dipole components along the rotational axes: 
x,y,z [a.u.] :    -2.169266    -0.000000    -0.000001 
x,y,z [Debye]:    -5.513836    -0.000000    -0.000003 

 

Timings for individual modules:

Sum of individual times         ...      514.028 sec (=   8.567 min)
GTO integral calculation        ...        3.277 sec (=   0.055 min)   0.6 %
SCF iterations                  ...      510.751 sec (=   8.513 min)  99.4 %
                             ****ORCA TERMINATED NORMALLY****
TOTAL RUN TIME: 0 days 0 hours 8 minutes 34 seconds 631 msec
