
                                 *****************
                                 * O   R   C   A *
                                 *****************

           --- An Ab Initio, DFT and Semiempirical electronic structure package ---

                  #######################################################
                  #                        -***-                        #
                  #          Department of theory and spectroscopy      #
                  #               Directorship: Frank Neese             #
                  #        Max Planck Institute fuer Kohlenforschung    #
                  #                Kaiser Wilhelm Platz 1               #
                  #                 D-45470 Muelheim/Ruhr               #
                  #                      Germany                        #
                  #                                                     #
                  #                  All rights reserved                #
                  #                        -***-                        #
                  #######################################################


                         Program Version 4.2.0 -  RELEASE  -


 With contributions from (in alphabetic order):
   Daniel Aravena         : Magnetic Suceptibility
   Michael Atanasov       : Ab Initio Ligand Field Theory (pilot matlab implementation)
   Alexander A. Auer      : GIAO ZORA, VPT2
   Ute Becker             : Parallelization
   Giovanni Bistoni       : ED, misc. LED, open-shell LED, HFLED
   Martin Brehm           : Molecular dynamics
   Dmytro Bykov           : SCF Hessian
   Vijay G. Chilkuri      : MRCI spin determinant printing, contributions to CSF-ICE
   Dipayan Datta          : RHF DLPNO-CCSD density
   Achintya Kumar Dutta   : EOM-CC, STEOM-CC
   Dmitry Ganyushin       : Spin-Orbit,Spin-Spin,Magnetic field MRCI
   Miquel Garcia          : C-PCM Hessian, Gaussian charge scheme
   Yang Guo               : DLPNO-NEVPT2, CIM, IAO-localization
   Andreas Hansen         : Spin unrestricted coupled pair/coupled cluster methods
   Benjamin Helmich-Paris : CASSCF linear response (MC-RPA)
   Lee Huntington         : MR-EOM, pCC
   Robert Izsak           : Overlap fitted RIJCOSX, COSX-SCS-MP3, EOM
   Christian Kollmar      : KDIIS, OOCD, Brueckner-CCSD(T), CCSD density
   Simone Kossmann        : Meta GGA functionals, TD-DFT gradient, OOMP2, MP2 Hessian
   Martin Krupicka        : AUTO-CI
   Lucas Lang             : DCDCAS
   Dagmar Lenk            : GEPOL surface, SMD
   Dimitrios Liakos       : Extrapolation schemes; Compound Job, initial MDCI parallelization
   Dimitrios Manganas     : Further ROCIS development; embedding schemes
   Dimitrios Pantazis     : SARC Basis sets
   Taras Petrenko         : DFT Hessian,TD-DFT gradient, ASA, ECA, R-Raman, ABS, FL, XAS/XES, NRVS
   Peter Pinski           : DLPNO-MP2, DLPNO-MP2 Gradient
   Christoph Reimann      : Effective Core Potentials
   Marius Retegan         : Local ZFS, SOC
   Christoph Riplinger    : Optimizer, TS searches, QM/MM, DLPNO-CCSD(T), (RO)-DLPNO pert. Triples
   Tobias Risthaus        : Range-separated hybrids, TD-DFT gradient, RPA, STAB
   Michael Roemelt        : Original ROCIS implementation
   Masaaki Saitow         : Open-shell DLPNO-CCSD energy and density
   Barbara Sandhoefer     : DKH picture change effects
   Avijit Sen             : IP-ROCIS
   Kantharuban Sivalingam : CASSCF convergence, NEVPT2, FIC-MRCI
   Bernardo de Souza      : ESD, SOC TD-DFT
   Georgi Stoychev        : AutoAux, RI-MP2 NMR
   Willem Van den Heuvel  : Paramagnetic NMR
   Boris Wezisla          : Elementary symmetry handling
   Frank Wennmohs         : Technical directorship


 We gratefully acknowledge several colleagues who have allowed us to
 interface, adapt or use parts of their codes:
   Stefan Grimme, W. Hujo, H. Kruse,             : VdW corrections, initial TS optimization,
                  C. Bannwarth                     DFT functionals, gCP, sTDA/sTD-DF
   Ed Valeev, F. Pavosevic, A. Kumar             : LibInt (2-el integral package), F12 methods
   Garnet Chan, S. Sharma, J. Yang, R. Olivares  : DMRG
   Ulf Ekstrom                                   : XCFun DFT Library
   Mihaly Kallay                                 : mrcc  (arbitrary order and MRCC methods)
   Andreas Klamt, Michael Diedenhofen            : otool_cosmo (COSMO solvation model)
   Jiri Pittner, Ondrej Demel                    : Mk-CCSD
   Frank Weinhold                                : gennbo (NPA and NBO analysis)
   Christopher J. Cramer and Donald G. Truhlar   : smd solvation model
   Lars Goerigk                                  : TD-DFT with DH, B97 family of functionals
   V. Asgeirsson, H. Jonsson                     : NEB implementation
   FAccTs GmbH                                   : IRC, NEB, NEB-TS, Multilevel, MM, QM/MM, CI optimization
   S Lehtola, MJT Oliveira, MAL Marques          : LibXC Library


 Your calculation uses the libint2 library for the computation of 2-el integrals
 For citations please refer to: http://libint.valeyev.net

 Your ORCA version has been built with support for libXC version: 4.2.3
 For citations please refer to: https://tddft.org/programs/libxc/

 This ORCA versions uses:
   CBLAS   interface :  Fast vector & matrix operations
   LAPACKE interface :  Fast linear algebra routines
   SCALAPACK package :  Parallel linear algebra routines


Your calculation utilizes the DFT-NL dispersion correction.
Cite in your paper:
Vydrov, O. A.; Van Voorhis, T. J. Chem. Phys. 2010, 133, 244103
Hujo, W.; Grimme, S. J. Chem. Theory Comput. 2011, 7, 3866 
   

----- Orbital basis set information -----
Your calculation utilizes the basis: aug-cc-pVTZ 
    H, B-Ne : Obtained from the ccRepo (grant-hill.group.shef.ac.uk/ccrepo) Feb. 2017
              R. A. Kendall, T. H. Dunning, Jr., R. J. Harrison, J. Chem. Phys. 96, 6796 (1992)
         He : Obtained from the ccRepo (grant-hill.group.shef.ac.uk/ccrepo) Feb. 2017
              D. E. Woon, T. H. Dunning, Jr., J. Chem. Phys. 100, 2975 (1994)
  Li-Be, Na : Obtained from the ccRepo (grant-hill.group.shef.ac.uk/ccrepo) Feb. 2017
              B. P. Prascher, D. E. Woon, K. A. Peterson, T. H. Dunning, Jr., A. K. Wilson, Theor. Chem. Acc. 128, 69 (2011)
         Mg : Obtained from the Peterson Research Group Website (tyr0.chem.wsu.edu/~kipeters) Feb. 2017
              B. P. Prascher, D. E. Woon, K. A. Peterson, T. H. Dunning, Jr., A. K. Wilson, Theor. Chem. Acc. 128, 69 (2011)
      Al-Ar : Obtained from the ccRepo (grant-hill.group.shef.ac.uk/ccrepo) Feb. 2017
              D. E. Woon, T. H. Dunning, Jr., J. Chem. Phys. 98, 1358 (1993)
      Sc-Zn : Obtained from the ccRepo (grant-hill.group.shef.ac.uk/ccrepo) Feb. 2017
              N. B. Balabanov, K. A. Peterson, J. Chem. Phys. 123, 064107 (2005)
              N. B. Balabanov, K. A. Peterson, J. Chem. Phys. 125, 074110 (2006)
      Ga-Kr : Obtained from the ccRepo (grant-hill.group.shef.ac.uk/ccrepo) Feb. 2017
              A. K. Wilson, D. E. Woon, K. A. Peterson, T. H. Dunning, Jr., J. Chem. Phys. 110, 7667 (1999)
     Ag, Au : Obtained from the Peterson Research Group Website (tyr0.chem.wsu.edu/~kipeters) Feb. 2017
              K. A. Peterson, C. Puzzarini, Theor. Chem. Acc. 114, 283 (2005)

----- AuxJK basis set information -----
Your calculation utilizes the auxiliary basis: def2/JK
   H-Ba, Hf-Rn: F. Weigend, J. Comput. Chem. 29, 167 (2008).

================================================================================
                                        WARNINGS
                       Please study these warnings very carefully!
================================================================================


WARNING: your system is open-shell and RHF/RKS was chosen
  ===> : WILL SWITCH to UHF/UKS


INFO   : the flag for use of LIBINT has been found!

================================================================================
                                       INPUT FILE
================================================================================
NAME = 48_NiS.in
|  1> #
|  2> # 48_NiS wb97m-v/aug-cc-pvtz
|  3> #
|  4> ! wb97m-v aug-cc-pvtz def2/jk grid4 nofinalgrid
|  5> 
|  6> *xyz 0 3
|  7>   Ni  0.00000000000000      0.00000000000000      0.01491413562016
|  8>   S   0.00000000000000      0.00000000000000      1.98508586437984
|  9> *
| 10> 
| 11> %pal
| 12> nprocs 24
| 13> end
| 14> 
| 15> 
| 16>                          ****END OF INPUT****
================================================================================

                       ****************************
                       * Single Point Calculation *
                       ****************************

---------------------------------
CARTESIAN COORDINATES (ANGSTROEM)
---------------------------------
  Ni     0.000000    0.000000    0.014914
  S      0.000000    0.000000    1.985086

----------------------------
CARTESIAN COORDINATES (A.U.)
----------------------------
  NO LB      ZA    FRAG     MASS         X           Y           Z
   0 Ni   28.0000    0    58.700    0.000000    0.000000    0.028184
   1 S    16.0000    0    32.060    0.000000    0.000000    3.751269

--------------------------------
INTERNAL COORDINATES (ANGSTROEM)
--------------------------------
 Ni     0   0   0     0.000000000000     0.00000000     0.00000000
 S      1   0   0     1.970171728760     0.00000000     0.00000000

---------------------------
INTERNAL COORDINATES (A.U.)
---------------------------
 Ni     0   0   0     0.000000000000     0.00000000     0.00000000
 S      1   0   0     3.723085004150     0.00000000     0.00000000

---------------------
BASIS SET INFORMATION
---------------------
There are 2 groups of distinct atoms

 Group   1 Type Ni  : 116s77p23d3f2g contracted to 8s7p5d3f2g pattern {19191919191911/151515151511/77711/111/11}
 Group   2 Type S   : 42s17p3d2f contracted to 6s5p3d2f pattern {131313111/77111/111/11}

Atom   0Ni   basis set group =>   1
Atom   1S    basis set group =>   2
----------------------------------
AUXILIARY/JK BASIS SET INFORMATION
----------------------------------
There are 2 groups of distinct atoms

 Group   1 Type Ni  : 19s14p12d10f7g3h1i contracted to 16s13p11d9f5g3h1i pattern {4111111111111111/2111111111111/21111111111/211111111/31111/111/1}
 Group   2 Type S   : 16s12p10d4f1g contracted to 13s11p9d4f1g pattern {4111111111111/21111111111/211111111/1111/1}

Atom   0Ni   basis set group =>   1
Atom   1S    basis set group =>   2


           ************************************************************
           *        Program running with 24 parallel MPI-processes    *
           *              working on a common directory               *
           ************************************************************
------------------------------------------------------------------------------
                           ORCA GTO INTEGRAL CALCULATION
------------------------------------------------------------------------------

                         BASIS SET STATISTICS AND STARTUP INFO

 # of primitive gaussian shells          ...  285
 # of primitive gaussian functions       ...  623
 # of contracted shells                  ...   41
 # of contracted basis functions         ...  143
 Highest angular momentum                ...    4
 Maximum contraction depth               ...   19
 Integral package used                   ... LIBINT
 Integral threshhold            Thresh   ...  1.000e-10
 Primitive cut-off              TCut     ...  1.000e-11


------------------------------ INTEGRAL EVALUATION ----------------------------


 * One electron integrals 
 Pre-screening matrix                    ... done
 Shell pair data                         ... done (   0.001 sec)



           ************************************************************
           *        Program running with 24 parallel MPI-processes    *
           *              working on a common directory               *
           ************************************************************
-------------------------------------------------------------------------------
                                 ORCA SCF
-------------------------------------------------------------------------------

------------
SCF SETTINGS
------------
Hamiltonian:
 Density Functional     Method          .... DFT(GTOs)
 Exchange Functional    Exchange        .... WB97M-V
 Correlation Functional Correlation     .... WB97M-V
 Gradients option       PostSCFGGA      .... off
 Hybrid DFT is turned on
   Fraction HF Exchange ScalHFX         ....  0.150000
   Scaling of DF-GGA-X  ScalDFX         ....  0.000000
   Scaling of DF-GGA-C  ScalDFC         ....  1.000000
   Scaling of DF-LDA-C  ScalLDAC        ....  1.000000
   Perturbative correction              ....  0.000000
   Density functional embedding theory  .... OFF
 Long-range corrected/Screened/Range-Separated Hybrid DFT is turned on
   Amount of maximum screened exact exchange              ....  0.850000
   Range separation parameter mu (erf(mu*r12)/r12)        ....  0.300000
   NL short-range parameter             ....  6.000000
   NL long-range parameter              ....  0.010000


General Settings:
 Integral files         IntName         .... 48_NiS
 Hartree-Fock type      HFTyp           .... UHF
 Total Charge           Charge          ....    0
 Multiplicity           Mult            ....    3
 Number of Electrons    NEL             ....   44
 Basis Dimension        Dim             ....  143
 Nuclear Repulsion      ENuc            ....    120.3303173311 Eh

Convergence Acceleration:
 DIIS                   CNVDIIS         .... on
   Start iteration      DIISMaxIt       ....    12
   Startup error        DIISStart       ....  0.200000
   # of expansion vecs  DIISMaxEq       ....     5
   Bias factor          DIISBfac        ....   1.050
   Max. coefficient     DIISMaxC        ....  10.000
 Newton-Raphson         CNVNR           .... off
 SOSCF                  CNVSOSCF        .... off
 Level Shifting         CNVShift        .... on
   Level shift para.    LevelShift      ....    0.2500
   Turn off err/grad.   ShiftErr        ....    0.0010
 Zerner damping         CNVZerner       .... off
 Static damping         CNVDamp         .... on
   Fraction old density DampFac         ....    0.7000
   Max. Damping (<1)    DampMax         ....    0.9800
   Min. Damping (>=0)   DampMin         ....    0.0000
   Turn off err/grad.   DampErr         ....    0.1000
 Fernandez-Rico         CNVRico         .... off

SCF Procedure:
 Maximum # iterations   MaxIter         ....   125
 SCF integral mode      SCFMode         .... Direct
   Integral package                     .... LIBINT
 Reset frequency        DirectResetFreq ....    20
 Integral Threshold     Thresh          ....  1.000e-10 Eh
 Primitive CutOff       TCut            ....  1.000e-11 Eh

Convergence Tolerance:
 Convergence Check Mode ConvCheckMode   .... Total+1el-Energy
 Convergence forced     ConvForced      .... 0
 Energy Change          TolE            ....  1.000e-06 Eh
 1-El. energy change                    ....  1.000e-03 Eh
 DIIS Error             TolErr          ....  1.000e-06


Diagonalization of the overlap matrix:
Smallest eigenvalue                        ... 1.255e-04
Time for diagonalization                   ...    0.005 sec
Threshold for overlap eigenvalues          ... 1.000e-08
Number of eigenvalues below threshold      ... 0
Time for construction of square roots      ...    0.002 sec
Total time needed                          ...    0.007 sec

-------------------
DFT GRID GENERATION
-------------------

General Integration Accuracy     IntAcc      ...  4.670
Radial Grid Type                 RadialGrid  ... Gauss-Chebyshev
Angular Grid (max. acc.)         AngularGrid ... Lebedev-302
Angular grid pruning method      GridPruning ... 3 (G Style)
Weight generation scheme         WeightScheme... Becke
Basis function cutoff            BFCut       ...    1.0000e-10
Integration weight cutoff        WCut        ...    1.0000e-14
Grids for H and He will be reduced by one unit

# of grid points (after initial pruning)     ...  16510 (   0.0 sec)
# of grid points (after weights+screening)   ...  16482 (   0.0 sec)
nearest neighbour list constructed           ...    0.0 sec
Grid point re-assignment to atoms done       ...    0.0 sec
Grid point division into batches done        ...    0.1 sec
Reduced shell lists constructed in    0.1 sec

Total number of grid points                  ...    16482
Total number of batches                      ...      258
Average number of points per batch           ...       63
Average number of grid points per atom       ...     8241
Average number of shells per batch           ...    15.83 (38.62%)
Average number of basis functions per batch  ...    40.00 (27.97%)
Average number of large shells per batch     ...     8.25 (52.11%)
Average number of large basis fcns per batch ...    20.08 (50.21%)
Maximum spatial batch extension              ...  23.02, 23.02, 16.62 au
Average spatial batch extension              ...   0.79,  0.78,  0.60 au

Time for grid setup =    0.165 sec

------------------------------
INITIAL GUESS: MODEL POTENTIAL
------------------------------
Loading Hartree-Fock densities                     ... done
Calculating cut-offs                               ... done
Setting up the integral package                    ... done
Initializing the effective Hamiltonian             ... done
Starting the Coulomb interaction                   ... done (   0.0 sec)
Reading the grid                                   ... done
Mapping shells                                     ... done
Starting the XC term evaluation                    ... done (   0.0 sec)
  promolecular density results
     # of electrons  =     44.000033645
     EX              =    -86.415170652
     EC              =     -1.892449061
     EX+EC           =    -88.307619713
Transforming the Hamiltonian                       ... done (   0.0 sec)
Diagonalizing the Hamiltonian                      ... done (   0.0 sec)
Back transforming the eigenvectors                 ... done (   0.0 sec)
Now organizing SCF variables                       ... done
                      ------------------
                      INITIAL GUESS DONE (   0.3 sec)
                      ------------------
--------------
SCF ITERATIONS
--------------
ITER       Energy         Delta-E        Max-DP      RMS-DP      [F,P]     Damp
               ***  Starting incremental Fock matrix formation  ***
  0  -1906.5119783978   0.000000000000 0.07404164  0.00097321  0.3066237 0.7000
  1  -1906.5550365187  -0.043058120930 0.02874061  0.00050475  0.0644340 0.7000
                               ***Turning on DIIS***
  2  -1906.5710543268  -0.016017808098 0.05685583  0.00111733  0.0637381 0.0000
  3  -1906.6125494569  -0.041495130091 0.02268452  0.00040828  0.0965180 0.0000
  4  -1906.6197410623  -0.007191605391 0.01363289  0.00015735  0.0227333 0.0000
  5  -1906.6209981732  -0.001257110951 0.01119696  0.00012111  0.0117875 0.0000
  6  -1906.6217644814  -0.000766308203 0.01558389  0.00015723  0.0084390 0.0000
  7  -1906.6224669293  -0.000702447846 0.01604564  0.00016464  0.0056405 0.0000
  8  -1906.6229464655  -0.000479536179 0.00849255  0.00007664  0.0029354 0.0000
  9  -1906.6230837539  -0.000137288428 0.00995606  0.00010891  0.0041578 0.0000
 10  -1906.6232015750  -0.000117821090 0.00457166  0.00004567  0.0030094 0.0000
 11  -1906.6232361193  -0.000034544313 0.00292766  0.00002838  0.0011489 0.0000
 12  -1906.6232473382  -0.000011218883 0.00293869  0.00002825  0.0007357 0.0000
 13  -1906.6232505798  -0.000003241628 0.00021447  0.00000310  0.0001742 0.0000
 14  -1906.6232524109  -0.000001831066 0.00011660  0.00000137  0.0000521 0.0000
 15  -1906.6232528297  -0.000000418810 0.00008547  0.00000112  0.0000398 0.0000
                 **** Energy Check signals convergence ****

               *****************************************************
               *                     SUCCESS                       *
               *           SCF CONVERGED AFTER  16 CYCLES          *
               *****************************************************


Setting up the DFT-NL grid :

General Integration Accuracy     IntAcc      ...  4.340
Radial Grid Type                 RadialGrid  ... Gauss-Chebyshev
Angular Grid (max. acc.)         AngularGrid ... Lebedev-110
Angular grid pruning method      GridPruning ... 3 (G Style)
Weight generation scheme         WeightScheme... Becke
Basis function cutoff            BFCut       ...    1.0000e-10
Integration weight cutoff        WCut        ...    1.0000e-14
Grids for H and He will be reduced by one unit

# of grid points (after initial pruning)     ...   4718 (   0.0 sec)
# of grid points (after weights+screening)   ...   4692 (   0.0 sec)
nearest neighbour list constructed           ...    0.0 sec
Grid point re-assignment to atoms done       ...    0.0 sec
Grid point division into batches done        ...    0.0 sec
Reduced shell lists constructed in    0.0 sec

Total number of grid points                  ...     4692
Total number of batches                      ...       74
Average number of points per batch           ...       63
Average number of grid points per atom       ...     2346
Average number of shells per batch           ...    24.00 (58.54%)
Average number of basis functions per batch  ...    72.00 (50.35%)
Average number of large shells per batch     ...    16.00 (66.67%)
Average number of large basis fcns per batch ...    44.80 (62.22%)
Maximum spatial batch extension              ...  17.39, 26.34, 14.81 au
Average spatial batch extension              ...   0.86,  1.19,  0.80 au

Final grid set up in    0.0 sec

-------------------------------------------------------------------------------
                         DFT-NL dispersion correction                          
-------------------------------------------------------------------------------

SC Energy -1906.623253010 
NL    Energy 0.184336227 
SC+NL Energy -1906.438916783 
NL done in    0.0 sec
-------------------------------------------------------------------------------

----------------
TOTAL SCF ENERGY
----------------

Total Energy       :        -1906.43891678 Eh          -51876.84029 eV

Components:
Nuclear Repulsion  :          120.33031733 Eh            3274.35440 eV
Electronic Energy  :        -2026.76923411 Eh          -55151.19469 eV
One Electron Energy:        -2886.55980614 Eh          -78547.28559 eV
Two Electron Energy:          859.79057202 Eh           23396.09090 eV

Virial components:
Potential Energy   :        -3810.26815262 Eh         -103682.66756 eV
Kinetic Energy     :         1903.82923584 Eh           51805.82726 eV
Virial Ratio       :            2.00137075


DFT components:
N(Alpha)           :       23.000006031155 electrons
N(Beta)            :       21.000004478589 electrons
N(Total)           :       44.000010509745 electrons
E(X)               :      -67.678739688658 Eh       
E(C)               :       -2.217492638288 Eh       
NL Energy, E(C,NL) :        0.184336227228 Eh       
E(XC)              :      -69.711896099717 Eh       
DFET-embed. en.    :        0.000000000000 Eh       

---------------
SCF CONVERGENCE
---------------

  Last Energy change         ...   -1.8052e-07  Tolerance :   1.0000e-06
  Last MAX-Density change    ...    1.1682e-04  Tolerance :   1.0000e-05
  Last RMS-Density change    ...    9.8879e-07  Tolerance :   1.0000e-06
  Last DIIS Error            ...    2.2877e-05  Tolerance :   1.0000e-06

             **** THE GBW FILE WAS UPDATED (48_NiS.gbw) ****
             **** DENSITY FILE WAS UPDATED (48_NiS.scfp) ****
             **** ENERGY FILE WAS UPDATED (48_NiS.en.tmp) ****
----------------------
UHF SPIN CONTAMINATION
----------------------

Warning: in a DFT calculation there is little theoretical justification to 
         calculate <S**2> as in Hartree-Fock theory. We will do it anyways
         but you should keep in mind that the values have only limited relevance

Expectation value of <S**2>     :     2.022121
Ideal value S*(S+1) for S=1.0   :     2.000000
Deviation                       :     0.022121

             **** THE GBW FILE WAS UPDATED (48_NiS.gbw) ****
             **** DENSITY FILE WAS UPDATED (48_NiS.scfp) ****
----------------
ORBITAL ENERGIES
----------------
                 SPIN UP ORBITALS
  NO   OCC          E(Eh)            E(eV) 
   0   1.0000    -300.392236     -8174.0883 
   1   1.0000     -89.186199     -2426.8798 
   2   1.0000     -36.061685      -981.2883 
   3   1.0000     -31.398646      -854.4006 
   4   1.0000     -31.375781      -853.7784 
   5   1.0000     -31.375781      -853.7784 
   6   1.0000      -8.098315      -220.3664 
   7   1.0000      -6.008052      -163.4874 
   8   1.0000      -6.008052      -163.4874 
   9   1.0000      -6.003867      -163.3735 
  10   1.0000      -4.233274      -115.1932 
  11   1.0000      -2.829248       -76.9877 
  12   1.0000      -2.779450       -75.6327 
  13   1.0000      -2.779450       -75.6327 
  14   1.0000      -0.780798       -21.2466 
  15   1.0000      -0.484057       -13.1719 
  16   1.0000      -0.484057       -13.1719 
  17   1.0000      -0.477406       -12.9909 
  18   1.0000      -0.426427       -11.6037 
  19   1.0000      -0.426425       -11.6036 
  20   1.0000      -0.355630        -9.6772 
  21   1.0000      -0.336096        -9.1456 
  22   1.0000      -0.336096        -9.1456 
  23   0.0000      -0.050273        -1.3680 
  24   0.0000       0.012120         0.3298 
  25   0.0000       0.012120         0.3298 
  26   0.0000       0.020848         0.5673 
  27   0.0000       0.023141         0.6297 
  28   0.0000       0.066974         1.8225 
  29   0.0000       0.066974         1.8225 
  30   0.0000       0.075219         2.0468 
  31   0.0000       0.096292         2.6202 
  32   0.0000       0.096292         2.6202 
  33   0.0000       0.105654         2.8750 
  34   0.0000       0.107783         2.9329 
  35   0.0000       0.107783         2.9329 
  36   0.0000       0.136059         3.7023 
  37   0.0000       0.136059         3.7023 
  38   0.0000       0.150822         4.1041 
  39   0.0000       0.163402         4.4464 
  40   0.0000       0.244659         6.6575 
  41   0.0000       0.244659         6.6575 
  42   0.0000       0.267876         7.2893 
  43   0.0000       0.279790         7.6135 
  44   0.0000       0.279791         7.6135 
  45   0.0000       0.319007         8.6806 
  46   0.0000       0.363203         9.8832 
  47   0.0000       0.363203         9.8832 
  48   0.0000       0.388673        10.5763 
  49   0.0000       0.416250        11.3267 
  50   0.0000       0.416251        11.3268 
  51   0.0000       0.464387        12.6366 
  52   0.0000       0.464387        12.6366 
  53   0.0000       0.562677        15.3112 
  54   0.0000       0.562677        15.3112 
  55   0.0000       0.604522        16.4499 
  56   0.0000       0.630329        17.1521 
  57   0.0000       0.680940        18.5293 
  58   0.0000       0.680946        18.5295 
  59   0.0000       0.724333        19.7101 
  60   0.0000       0.724333        19.7101 
  61   0.0000       0.734597        19.9894 
  62   0.0000       0.761134        20.7115 
  63   0.0000       0.792553        21.5665 
  64   0.0000       0.792553        21.5665 
  65   0.0000       0.842741        22.9321 
  66   0.0000       0.842745        22.9322 
  67   0.0000       0.947371        25.7793 
  68   0.0000       0.947371        25.7793 
  69   0.0000       0.977888        26.6097 
  70   0.0000       1.063317        28.9343 
  71   0.0000       1.063317        28.9343 
  72   0.0000       1.240020        33.7427 
  73   0.0000       1.361288        37.0425 
  74   0.0000       1.361288        37.0425 
  75   0.0000       1.475674        40.1551 
  76   0.0000       1.476771        40.1850 
  77   0.0000       1.476775        40.1851 
  78   0.0000       1.515148        41.2293 
  79   0.0000       1.515148        41.2293 
  80   0.0000       1.529346        41.6156 
  81   0.0000       1.529351        41.6157 
  82   0.0000       1.561600        42.4933 
  83   0.0000       1.754758        47.7494 
  84   0.0000       1.754758        47.7494 
  85   0.0000       1.849473        50.3267 
  86   0.0000       1.849502        50.3275 
  87   0.0000       1.951798        53.1111 
  88   0.0000       1.951798        53.1111 
  89   0.0000       2.046956        55.7005 
  90   0.0000       2.147066        58.4246 
  91   0.0000       2.154559        58.6285 
  92   0.0000       2.154559        58.6285 
  93   0.0000       2.165271        58.9200 
  94   0.0000       2.165271        58.9200 
  95   0.0000       2.184409        59.4408 
  96   0.0000       2.184448        59.4419 
  97   0.0000       2.313854        62.9632 
  98   0.0000       2.483017        67.5663 
  99   0.0000       2.483017        67.5663 
 100   0.0000       3.189794        86.7987 
 101   0.0000       3.729845       101.4942 
 102   0.0000       3.953836       107.5894 
 103   0.0000       3.953836       107.5894 
 104   0.0000       4.000552       108.8605 
 105   0.0000       4.000558       108.8607 
 106   0.0000       4.044352       110.0524 
 107   0.0000       4.044352       110.0524 
 108   0.0000       4.123346       112.2019 
 109   0.0000       4.123346       112.2019 
 110   0.0000       4.170430       113.4832 
 111   0.0000       4.564759       124.2134 
 112   0.0000       4.983159       135.5986 
 113   0.0000       5.125190       139.4635 
 114   0.0000       5.125190       139.4635 
 115   0.0000       5.139127       139.8427 
 116   0.0000       5.139127       139.8428 
 117   0.0000       5.148601       140.1006 
 118   0.0000       5.148683       140.1028 
 119   0.0000       5.262662       143.2043 
 120   0.0000       5.262662       143.2043 
 121   0.0000       5.572452       151.6341 
 122   0.0000       5.766020       156.9014 
 123   0.0000       5.766022       156.9014 
 124   0.0000       5.989912       162.9938 
 125   0.0000       5.989912       162.9938 
 126   0.0000       7.070916       192.4094 
 127   0.0000      12.575869       342.2068 
 128   0.0000      12.576025       342.2110 
 129   0.0000      12.582662       342.3916 
 130   0.0000      12.582662       342.3916 
 131   0.0000      12.655555       344.3752 
 132   0.0000      12.655555       344.3752 
 133   0.0000      12.678310       344.9943 
 134   0.0000      14.120687       384.2434 
 135   0.0000      14.120687       384.2434 
 136   0.0000      14.122202       384.2847 
 137   0.0000      14.122401       384.2901 
 138   0.0000      14.160363       385.3231 
 139   0.0000      14.160487       385.3265 
 140   0.0000      14.198349       386.3567 
 141   0.0000      14.198349       386.3567 
 142   0.0000      14.283933       388.6856 

                 SPIN DOWN ORBITALS
  NO   OCC          E(Eh)            E(eV) 
   0   1.0000    -300.391508     -8174.0685 
   1   1.0000     -89.181211     -2426.7441 
   2   1.0000     -36.026214      -980.3231 
   3   1.0000     -31.361540      -853.3909 
   4   1.0000     -31.352564      -853.1466 
   5   1.0000     -31.352564      -853.1466 
   6   1.0000      -8.093373      -220.2319 
   7   1.0000      -6.000154      -163.2725 
   8   1.0000      -5.997646      -163.2042 
   9   1.0000      -5.997646      -163.2042 
  10   1.0000      -4.169650      -113.4619 
  11   1.0000      -2.737166       -74.4821 
  12   1.0000      -2.721388       -74.0527 
  13   1.0000      -2.721388       -74.0527 
  14   1.0000      -0.748220       -20.3601 
  15   1.0000      -0.449521       -12.2321 
  16   1.0000      -0.390561       -10.6277 
  17   1.0000      -0.390559       -10.6276 
  18   1.0000      -0.348264        -9.4768 
  19   1.0000      -0.348264        -9.4768 
  20   1.0000      -0.340183        -9.2568 
  21   0.0000      -0.049415        -1.3447 
  22   0.0000      -0.041173        -1.1204 
  23   0.0000      -0.041173        -1.1204 
  24   0.0000       0.015158         0.4125 
  25   0.0000       0.015158         0.4125 
  26   0.0000       0.016154         0.4396 
  27   0.0000       0.021322         0.5802 
  28   0.0000       0.063711         1.7337 
  29   0.0000       0.063711         1.7337 
  30   0.0000       0.072634         1.9765 
  31   0.0000       0.095065         2.5869 
  32   0.0000       0.095065         2.5869 
  33   0.0000       0.101259         2.7554 
  34   0.0000       0.101259         2.7554 
  35   0.0000       0.105703         2.8763 
  36   0.0000       0.135789         3.6950 
  37   0.0000       0.135789         3.6950 
  38   0.0000       0.147516         4.0141 
  39   0.0000       0.161181         4.3859 
  40   0.0000       0.244621         6.6565 
  41   0.0000       0.244621         6.6565 
  42   0.0000       0.262387         7.1399 
  43   0.0000       0.278804         7.5866 
  44   0.0000       0.278804         7.5867 
  45   0.0000       0.322189         8.7672 
  46   0.0000       0.368813        10.0359 
  47   0.0000       0.368813        10.0359 
  48   0.0000       0.390528        10.6268 
  49   0.0000       0.416095        11.3225 
  50   0.0000       0.416096        11.3225 
  51   0.0000       0.466461        12.6930 
  52   0.0000       0.466461        12.6930 
  53   0.0000       0.565015        15.3749 
  54   0.0000       0.565015        15.3749 
  55   0.0000       0.610956        16.6250 
  56   0.0000       0.627394        17.0723 
  57   0.0000       0.700717        19.0675 
  58   0.0000       0.700720        19.0676 
  59   0.0000       0.737324        20.0636 
  60   0.0000       0.737324        20.0636 
  61   0.0000       0.744858        20.2686 
  62   0.0000       0.768433        20.9101 
  63   0.0000       0.795106        21.6359 
  64   0.0000       0.795106        21.6359 
  65   0.0000       0.844635        22.9837 
  66   0.0000       0.844639        22.9838 
  67   0.0000       0.953232        25.9388 
  68   0.0000       0.953232        25.9388 
  69   0.0000       0.981720        26.7140 
  70   0.0000       1.070794        29.1378 
  71   0.0000       1.070794        29.1378 
  72   0.0000       1.245353        33.8878 
  73   0.0000       1.357508        36.9397 
  74   0.0000       1.357508        36.9397 
  75   0.0000       1.485572        40.4245 
  76   0.0000       1.485574        40.4245 
  77   0.0000       1.495726        40.7008 
  78   0.0000       1.527958        41.5779 
  79   0.0000       1.527959        41.5779 
  80   0.0000       1.530339        41.6426 
  81   0.0000       1.530339        41.6426 
  82   0.0000       1.567785        42.6616 
  83   0.0000       1.768151        48.1138 
  84   0.0000       1.768152        48.1138 
  85   0.0000       1.895426        51.5772 
  86   0.0000       1.895455        51.5779 
  87   0.0000       1.978282        53.8318 
  88   0.0000       1.978282        53.8318 
  89   0.0000       2.059747        56.0486 
  90   0.0000       2.162496        58.8445 
  91   0.0000       2.196710        59.7755 
  92   0.0000       2.196710        59.7755 
  93   0.0000       2.199904        59.8624 
  94   0.0000       2.199904        59.8624 
  95   0.0000       2.210079        60.1393 
  96   0.0000       2.210105        60.1400 
  97   0.0000       2.323677        63.2305 
  98   0.0000       2.503537        68.1247 
  99   0.0000       2.503537        68.1247 
 100   0.0000       3.212864        87.4265 
 101   0.0000       3.763108       102.3994 
 102   0.0000       3.968612       107.9914 
 103   0.0000       3.968612       107.9914 
 104   0.0000       4.048972       110.1781 
 105   0.0000       4.048992       110.1787 
 106   0.0000       4.072494       110.8182 
 107   0.0000       4.072494       110.8182 
 108   0.0000       4.160581       113.2152 
 109   0.0000       4.160581       113.2152 
 110   0.0000       4.192866       114.0937 
 111   0.0000       4.595527       125.0506 
 112   0.0000       4.997473       135.9882 
 113   0.0000       5.148539       140.0989 
 114   0.0000       5.148539       140.0989 
 115   0.0000       5.153373       140.2304 
 116   0.0000       5.153470       140.2331 
 117   0.0000       5.159229       140.3898 
 118   0.0000       5.159243       140.3901 
 119   0.0000       5.281466       143.7160 
 120   0.0000       5.281466       143.7160 
 121   0.0000       5.587109       152.0330 
 122   0.0000       5.798408       157.7827 
 123   0.0000       5.798411       157.7828 
 124   0.0000       6.067245       165.0981 
 125   0.0000       6.067245       165.0981 
 126   0.0000       7.103845       193.3055 
 127   0.0000      12.621647       343.4525 
 128   0.0000      12.621647       343.4525 
 129   0.0000      12.675570       344.9198 
 130   0.0000      12.675708       344.9236 
 131   0.0000      12.732423       346.4668 
 132   0.0000      12.732423       346.4668 
 133   0.0000      12.735998       346.5641 
 134   0.0000      14.182135       385.9155 
 135   0.0000      14.182135       385.9155 
 136   0.0000      14.183194       385.9443 
 137   0.0000      14.183380       385.9494 
 138   0.0000      14.186151       386.0248 
 139   0.0000      14.186268       386.0280 
 140   0.0000      14.247465       387.6932 
 141   0.0000      14.247465       387.6932 
 142   0.0000      14.328548       389.8996 

                    ********************************
                    * MULLIKEN POPULATION ANALYSIS *
                    ********************************

--------------------------------------------
MULLIKEN ATOMIC CHARGES AND SPIN POPULATIONS
--------------------------------------------
   0 Ni:    0.260238    1.070075
   1 S :   -0.260238    0.929925
Sum of atomic charges         :   -0.0000000
Sum of atomic spin populations:    2.0000000

-----------------------------------------------------
MULLIKEN REDUCED ORBITAL CHARGES AND SPIN POPULATIONS
-----------------------------------------------------
CHARGE
  0 Nis       :     6.666219  s :     6.666219
      pz      :     4.116043  p :    12.250802
      px      :     4.067379
      py      :     4.067379
      dz2     :     1.917625  d :     8.814334
      dxz     :     1.450136
      dyz     :     1.450136
      dx2y2   :     1.998219
      dxy     :     1.998219
      f0      :     0.002527  f :     0.008033
      f+1     :     0.002675
      f-1     :     0.002675
      f+2     :     0.000079
      f-2     :     0.000079
      f+3     :     0.000000
      f-3     :     0.000000
      g0      :     0.000147  g :     0.000374
      g+1     :     0.000099
      g-1     :     0.000099
      g+2     :     0.000014
      g-2     :     0.000014
      g+3     :     0.000000
      g-3     :     0.000000
      g+4     :     0.000000
      g-4     :     0.000000
  1 S s       :     5.860657  s :     5.860657
      pz      :     3.428256  p :    10.346655
      px      :     3.459200
      py      :     3.459200
      dz2     :     0.007326  d :     0.046204
      dxz     :     0.018388
      dyz     :     0.018388
      dx2y2   :     0.001051
      dxy     :     0.001051
      f0      :     0.001201  f :     0.006722
      f+1     :     0.002123
      f-1     :     0.002123
      f+2     :     0.000637
      f-2     :     0.000637
      f+3     :     0.000000
      f-3     :     0.000000

SPIN
  0 Nis       :    -0.035059  s :    -0.035059
      pz      :     0.003308  p :     0.014497
      px      :     0.005595
      py      :     0.005595
      dz2     :     0.013707  d :     1.088442
      dxz     :     0.537307
      dyz     :     0.537307
      dx2y2   :     0.000061
      dxy     :     0.000061
      f0      :     0.000421  f :     0.002224
      f+1     :     0.000873
      f-1     :     0.000873
      f+2     :     0.000029
      f-2     :     0.000029
      f+3     :     0.000000
      f-3     :     0.000000
      g0      :    -0.000025  g :    -0.000029
      g+1     :    -0.000015
      g-1     :    -0.000015
      g+2     :     0.000012
      g-2     :     0.000012
      g+3     :     0.000000
      g-3     :     0.000000
      g+4     :     0.000000
      g-4     :     0.000000
  1 S s       :    -0.000118  s :    -0.000118
      pz      :     0.018033  p :     0.950136
      px      :     0.466052
      py      :     0.466051
      dz2     :    -0.000350  d :    -0.018113
      dxz     :    -0.008814
      dyz     :    -0.008814
      dx2y2   :    -0.000067
      dxy     :    -0.000067
      f0      :     0.000081  f :    -0.001981
      f+1     :    -0.000997
      f-1     :    -0.000997
      f+2     :    -0.000035
      f-2     :    -0.000035
      f+3     :     0.000000
      f-3     :     0.000000


                     *******************************
                     * LOEWDIN POPULATION ANALYSIS *
                     *******************************

-------------------------------------------
LOEWDIN ATOMIC CHARGES AND SPIN POPULATIONS
-------------------------------------------
   0 Ni:    0.010339    1.204545
   1 S :   -0.010339    0.795455

----------------------------------------------------
LOEWDIN REDUCED ORBITAL CHARGES AND SPIN POPULATIONS
----------------------------------------------------
CHARGE
  0 Nis       :     6.466098  s :     6.466098
      pz      :     4.259591  p :    12.456569
      px      :     4.098489
      py      :     4.098489
      dz2     :     2.030654  d :     9.007693
      dxz     :     1.503763
      dyz     :     1.503763
      dx2y2   :     1.984756
      dxy     :     1.984757
      f0      :     0.024627  f :     0.058329
      f+1     :     0.016539
      f-1     :     0.016539
      f+2     :     0.000312
      f-2     :     0.000312
      f+3     :     0.000000
      f-3     :     0.000000
      g0      :     0.000467  g :     0.000971
      g+1     :     0.000243
      g-1     :     0.000243
      g+2     :     0.000009
      g-2     :     0.000009
      g+3     :     0.000000
      g-3     :     0.000000
      g+4     :     0.000000
      g-4     :     0.000000
  1 S s       :     5.490357  s :     5.490357
      pz      :     3.519953  p :    10.121296
      px      :     3.300672
      py      :     3.300672
      dz2     :     0.122932  d :     0.219761
      dxz     :     0.043630
      dyz     :     0.043630
      dx2y2   :     0.004785
      dxy     :     0.004784
      f0      :     0.085321  f :     0.178925
      f+1     :     0.036665
      f-1     :     0.036665
      f+2     :     0.010138
      f-2     :     0.010137
      f+3     :     0.000000
      f-3     :     0.000000

SPIN
  0 Nis       :    -0.034635  s :    -0.034635
      pz      :     0.003212  p :     0.104435
      px      :     0.050611
      py      :     0.050611
      dz2     :     0.014946  d :     1.118917
      dxz     :     0.550945
      dyz     :     0.550945
      dx2y2   :     0.001040
      dxy     :     0.001040
      f0      :     0.000701  f :     0.015710
      f+1     :     0.007458
      f-1     :     0.007458
      f+2     :     0.000046
      f-2     :     0.000046
      f+3     :     0.000000
      f-3     :     0.000000
      g0      :    -0.000019  g :     0.000118
      g+1     :     0.000059
      g-1     :     0.000059
      g+2     :     0.000009
      g-2     :     0.000009
      g+3     :     0.000000
      g-3     :     0.000000
      g+4     :     0.000000
      g-4     :     0.000000
  1 S s       :     0.001808  s :     0.001808
      pz      :     0.015404  p :     0.787515
      px      :     0.386056
      py      :     0.386056
      dz2     :    -0.001067  d :    -0.003573
      dxz     :    -0.000797
      dyz     :    -0.000797
      dx2y2   :    -0.000456
      dxy     :    -0.000456
      f0      :    -0.000350  f :     0.009706
      f+1     :     0.005668
      f-1     :     0.005668
      f+2     :    -0.000640
      f-2     :    -0.000640
      f+3     :     0.000000
      f-3     :     0.000000


                      *****************************
                      * MAYER POPULATION ANALYSIS *
                      *****************************

  NA   - Mulliken gross atomic population
  ZA   - Total nuclear charge
  QA   - Mulliken gross atomic charge
  VA   - Mayer's total valence
  BVA  - Mayer's bonded valence
  FA   - Mayer's free valence

  ATOM       NA         ZA         QA         VA         BVA        FA
  0 Ni    27.7398    28.0000     0.2602     3.0731     2.3157     0.7574
  1 S     16.2602    16.0000    -0.2602     2.7621     2.3157     0.4464

  Mayer bond orders larger than 0.100000
B(  0-Ni,  1-S ) :   2.3157 

-------
TIMINGS
-------

Total SCF time: 0 days 0 hours 4 min 57 sec 

Total time                  ....     297.078 sec
Sum of individual times     ....     296.731 sec  ( 99.9%)

Fock matrix formation       ....     296.311 sec  ( 99.7%)
  XC integration            ....       0.609 sec  (  0.2% of F)
    Basis function eval.    ....       0.085 sec  ( 13.9% of XC)
    Density eval.           ....       0.092 sec  ( 15.1% of XC)
    XC-Functional eval.     ....       0.021 sec  (  3.5% of XC)
    XC-Potential eval.      ....       0.255 sec  ( 41.9% of XC)
Diagonalization             ....       0.087 sec  (  0.0%)
Density matrix formation    ....       0.011 sec  (  0.0%)
Population analysis         ....       0.007 sec  (  0.0%)
Initial guess               ....       0.103 sec  (  0.0%)
Orbital Transformation      ....       0.000 sec  (  0.0%)
Orbital Orthonormalization  ....       0.000 sec  (  0.0%)
DIIS solution               ....       0.032 sec  (  0.0%)
Grid generation             ....       0.181 sec  (  0.1%)

-------------------------   --------------------
FINAL SINGLE POINT ENERGY     -1906.438916782971
-------------------------   --------------------


                            ***************************************
                            *     ORCA property calculations      *
                            ***************************************

                                    ---------------------
                                    Active property flags
                                    ---------------------
   (+) Dipole Moment


------------------------------------------------------------------------------
                       ORCA ELECTRIC PROPERTIES CALCULATION
------------------------------------------------------------------------------

Dipole Moment Calculation                       ... on
Quadrupole Moment Calculation                   ... off
Polarizability Calculation                      ... off
GBWName                                         ... 48_NiS.gbw
Electron density file                           ... 48_NiS.scfp
The origin for moment calculation is the CENTER OF MASS  = ( 0.000000,  0.000000  1.343324)

-------------
DIPOLE MOMENT
-------------
                                X             Y             Z
Electronic contribution:     -0.00000      -0.00000      -3.63847
Nuclear contribution   :      0.00000       0.00000       1.70320
                        -----------------------------------------
Total Dipole Moment    :     -0.00000      -0.00000      -1.93527
                        -----------------------------------------
Magnitude (a.u.)       :      1.93527
Magnitude (Debye)      :      4.91907



--------------------
Rotational spectrum 
--------------------
 
Rotational constants in cm-1:     0.000000     0.209451     0.209451 
Rotational constants in MHz :     0.000000  6279.170942  6279.170942 

 Dipole components along the rotational axes: 
x,y,z [a.u.] :    -1.935271    -0.000000    -0.000000 
x,y,z [Debye]:    -4.919067    -0.000000    -0.000000 

 

Timings for individual modules:

Sum of individual times         ...      301.018 sec (=   5.017 min)
GTO integral calculation        ...        3.376 sec (=   0.056 min)   1.1 %
SCF iterations                  ...      297.642 sec (=   4.961 min)  98.9 %
                             ****ORCA TERMINATED NORMALLY****
TOTAL RUN TIME: 0 days 0 hours 5 minutes 1 seconds 635 msec
