
                                 *****************
                                 * O   R   C   A *
                                 *****************

           --- An Ab Initio, DFT and Semiempirical electronic structure package ---

                  #######################################################
                  #                        -***-                        #
                  #          Department of theory and spectroscopy      #
                  #               Directorship: Frank Neese             #
                  #        Max Planck Institute fuer Kohlenforschung    #
                  #                Kaiser Wilhelm Platz 1               #
                  #                 D-45470 Muelheim/Ruhr               #
                  #                      Germany                        #
                  #                                                     #
                  #                  All rights reserved                #
                  #                        -***-                        #
                  #######################################################


                         Program Version 4.2.0 -  RELEASE  -


 With contributions from (in alphabetic order):
   Daniel Aravena         : Magnetic Suceptibility
   Michael Atanasov       : Ab Initio Ligand Field Theory (pilot matlab implementation)
   Alexander A. Auer      : GIAO ZORA, VPT2
   Ute Becker             : Parallelization
   Giovanni Bistoni       : ED, misc. LED, open-shell LED, HFLED
   Martin Brehm           : Molecular dynamics
   Dmytro Bykov           : SCF Hessian
   Vijay G. Chilkuri      : MRCI spin determinant printing, contributions to CSF-ICE
   Dipayan Datta          : RHF DLPNO-CCSD density
   Achintya Kumar Dutta   : EOM-CC, STEOM-CC
   Dmitry Ganyushin       : Spin-Orbit,Spin-Spin,Magnetic field MRCI
   Miquel Garcia          : C-PCM Hessian, Gaussian charge scheme
   Yang Guo               : DLPNO-NEVPT2, CIM, IAO-localization
   Andreas Hansen         : Spin unrestricted coupled pair/coupled cluster methods
   Benjamin Helmich-Paris : CASSCF linear response (MC-RPA)
   Lee Huntington         : MR-EOM, pCC
   Robert Izsak           : Overlap fitted RIJCOSX, COSX-SCS-MP3, EOM
   Christian Kollmar      : KDIIS, OOCD, Brueckner-CCSD(T), CCSD density
   Simone Kossmann        : Meta GGA functionals, TD-DFT gradient, OOMP2, MP2 Hessian
   Martin Krupicka        : AUTO-CI
   Lucas Lang             : DCDCAS
   Dagmar Lenk            : GEPOL surface, SMD
   Dimitrios Liakos       : Extrapolation schemes; Compound Job, initial MDCI parallelization
   Dimitrios Manganas     : Further ROCIS development; embedding schemes
   Dimitrios Pantazis     : SARC Basis sets
   Taras Petrenko         : DFT Hessian,TD-DFT gradient, ASA, ECA, R-Raman, ABS, FL, XAS/XES, NRVS
   Peter Pinski           : DLPNO-MP2, DLPNO-MP2 Gradient
   Christoph Reimann      : Effective Core Potentials
   Marius Retegan         : Local ZFS, SOC
   Christoph Riplinger    : Optimizer, TS searches, QM/MM, DLPNO-CCSD(T), (RO)-DLPNO pert. Triples
   Tobias Risthaus        : Range-separated hybrids, TD-DFT gradient, RPA, STAB
   Michael Roemelt        : Original ROCIS implementation
   Masaaki Saitow         : Open-shell DLPNO-CCSD energy and density
   Barbara Sandhoefer     : DKH picture change effects
   Avijit Sen             : IP-ROCIS
   Kantharuban Sivalingam : CASSCF convergence, NEVPT2, FIC-MRCI
   Bernardo de Souza      : ESD, SOC TD-DFT
   Georgi Stoychev        : AutoAux, RI-MP2 NMR
   Willem Van den Heuvel  : Paramagnetic NMR
   Boris Wezisla          : Elementary symmetry handling
   Frank Wennmohs         : Technical directorship


 We gratefully acknowledge several colleagues who have allowed us to
 interface, adapt or use parts of their codes:
   Stefan Grimme, W. Hujo, H. Kruse,             : VdW corrections, initial TS optimization,
                  C. Bannwarth                     DFT functionals, gCP, sTDA/sTD-DF
   Ed Valeev, F. Pavosevic, A. Kumar             : LibInt (2-el integral package), F12 methods
   Garnet Chan, S. Sharma, J. Yang, R. Olivares  : DMRG
   Ulf Ekstrom                                   : XCFun DFT Library
   Mihaly Kallay                                 : mrcc  (arbitrary order and MRCC methods)
   Andreas Klamt, Michael Diedenhofen            : otool_cosmo (COSMO solvation model)
   Jiri Pittner, Ondrej Demel                    : Mk-CCSD
   Frank Weinhold                                : gennbo (NPA and NBO analysis)
   Christopher J. Cramer and Donald G. Truhlar   : smd solvation model
   Lars Goerigk                                  : TD-DFT with DH, B97 family of functionals
   V. Asgeirsson, H. Jonsson                     : NEB implementation
   FAccTs GmbH                                   : IRC, NEB, NEB-TS, Multilevel, MM, QM/MM, CI optimization
   S Lehtola, MJT Oliveira, MAL Marques          : LibXC Library


 Your calculation uses the libint2 library for the computation of 2-el integrals
 For citations please refer to: http://libint.valeyev.net

 Your ORCA version has been built with support for libXC version: 4.2.3
 For citations please refer to: https://tddft.org/programs/libxc/

 This ORCA versions uses:
   CBLAS   interface :  Fast vector & matrix operations
   LAPACKE interface :  Fast linear algebra routines
   SCALAPACK package :  Parallel linear algebra routines


Your calculation utilizes the DFT-NL dispersion correction.
Cite in your paper:
Vydrov, O. A.; Van Voorhis, T. J. Chem. Phys. 2010, 133, 244103
Hujo, W.; Grimme, S. J. Chem. Theory Comput. 2011, 7, 3866 
   

----- Orbital basis set information -----
Your calculation utilizes the basis: aug-cc-pVTZ 
    H, B-Ne : Obtained from the ccRepo (grant-hill.group.shef.ac.uk/ccrepo) Feb. 2017
              R. A. Kendall, T. H. Dunning, Jr., R. J. Harrison, J. Chem. Phys. 96, 6796 (1992)
         He : Obtained from the ccRepo (grant-hill.group.shef.ac.uk/ccrepo) Feb. 2017
              D. E. Woon, T. H. Dunning, Jr., J. Chem. Phys. 100, 2975 (1994)
  Li-Be, Na : Obtained from the ccRepo (grant-hill.group.shef.ac.uk/ccrepo) Feb. 2017
              B. P. Prascher, D. E. Woon, K. A. Peterson, T. H. Dunning, Jr., A. K. Wilson, Theor. Chem. Acc. 128, 69 (2011)
         Mg : Obtained from the Peterson Research Group Website (tyr0.chem.wsu.edu/~kipeters) Feb. 2017
              B. P. Prascher, D. E. Woon, K. A. Peterson, T. H. Dunning, Jr., A. K. Wilson, Theor. Chem. Acc. 128, 69 (2011)
      Al-Ar : Obtained from the ccRepo (grant-hill.group.shef.ac.uk/ccrepo) Feb. 2017
              D. E. Woon, T. H. Dunning, Jr., J. Chem. Phys. 98, 1358 (1993)
      Sc-Zn : Obtained from the ccRepo (grant-hill.group.shef.ac.uk/ccrepo) Feb. 2017
              N. B. Balabanov, K. A. Peterson, J. Chem. Phys. 123, 064107 (2005)
              N. B. Balabanov, K. A. Peterson, J. Chem. Phys. 125, 074110 (2006)
      Ga-Kr : Obtained from the ccRepo (grant-hill.group.shef.ac.uk/ccrepo) Feb. 2017
              A. K. Wilson, D. E. Woon, K. A. Peterson, T. H. Dunning, Jr., J. Chem. Phys. 110, 7667 (1999)
     Ag, Au : Obtained from the Peterson Research Group Website (tyr0.chem.wsu.edu/~kipeters) Feb. 2017
              K. A. Peterson, C. Puzzarini, Theor. Chem. Acc. 114, 283 (2005)

----- AuxJK basis set information -----
Your calculation utilizes the auxiliary basis: def2/JK
   H-Ba, Hf-Rn: F. Weigend, J. Comput. Chem. 29, 167 (2008).

================================================================================
                                        WARNINGS
                       Please study these warnings very carefully!
================================================================================


INFO   : the flag for use of LIBINT has been found!

================================================================================
                                       INPUT FILE
================================================================================
NAME = 51_CuCl.in
|  1> #
|  2> # 51_CuCl wb97m-v/aug-cc-pvtz
|  3> #
|  4> ! wb97m-v aug-cc-pvtz def2/jk grid4 nofinalgrid
|  5> 
|  6> *xyz 0 1
|  7>   Cu  0.00000000000000      0.00000000000000     -0.03459121817691
|  8>   Cl  0.00000000000000      0.00000000000000      2.03459121817691
|  9> *
| 10> 
| 11> %pal
| 12> nprocs 24
| 13> end
| 14> 
| 15> 
| 16>                          ****END OF INPUT****
================================================================================

                       ****************************
                       * Single Point Calculation *
                       ****************************

---------------------------------
CARTESIAN COORDINATES (ANGSTROEM)
---------------------------------
  Cu     0.000000    0.000000   -0.034591
  Cl     0.000000    0.000000    2.034591

----------------------------
CARTESIAN COORDINATES (A.U.)
----------------------------
  NO LB      ZA    FRAG     MASS         X           Y           Z
   0 Cu   29.0000    0    63.550    0.000000    0.000000   -0.065368
   1 Cl   17.0000    0    35.453    0.000000    0.000000    3.844820

--------------------------------
INTERNAL COORDINATES (ANGSTROEM)
--------------------------------
 Cu     0   0   0     0.000000000000     0.00000000     0.00000000
 Cl     1   0   0     2.069182436354     0.00000000     0.00000000

---------------------------
INTERNAL COORDINATES (A.U.)
---------------------------
 Cu     0   0   0     0.000000000000     0.00000000     0.00000000
 Cl     1   0   0     3.910188125829     0.00000000     0.00000000

---------------------
BASIS SET INFORMATION
---------------------
There are 2 groups of distinct atoms

 Group   1 Type Cu  : 116s77p23d3f2g contracted to 8s7p5d3f2g pattern {19191919191911/151515151511/77711/111/11}
 Group   2 Type Cl  : 42s17p3d2f contracted to 6s5p3d2f pattern {131313111/77111/111/11}

Atom   0Cu   basis set group =>   1
Atom   1Cl   basis set group =>   2
----------------------------------
AUXILIARY/JK BASIS SET INFORMATION
----------------------------------
There are 2 groups of distinct atoms

 Group   1 Type Cu  : 19s14p12d10f7g3h1i contracted to 16s13p11d9f5g3h1i pattern {4111111111111111/2111111111111/21111111111/211111111/31111/111/1}
 Group   2 Type Cl  : 16s12p10d4f1g contracted to 13s11p9d4f1g pattern {4111111111111/21111111111/211111111/1111/1}

Atom   0Cu   basis set group =>   1
Atom   1Cl   basis set group =>   2


           ************************************************************
           *        Program running with 24 parallel MPI-processes    *
           *              working on a common directory               *
           ************************************************************
------------------------------------------------------------------------------
                           ORCA GTO INTEGRAL CALCULATION
------------------------------------------------------------------------------

                         BASIS SET STATISTICS AND STARTUP INFO

 # of primitive gaussian shells          ...  285
 # of primitive gaussian functions       ...  623
 # of contracted shells                  ...   41
 # of contracted basis functions         ...  143
 Highest angular momentum                ...    4
 Maximum contraction depth               ...   19
 Integral package used                   ... LIBINT
 Integral threshhold            Thresh   ...  1.000e-10
 Primitive cut-off              TCut     ...  1.000e-11


------------------------------ INTEGRAL EVALUATION ----------------------------


 * One electron integrals 
 Pre-screening matrix                    ... done
 Shell pair data                         ... done (   0.001 sec)



           ************************************************************
           *        Program running with 24 parallel MPI-processes    *
           *              working on a common directory               *
           ************************************************************
-------------------------------------------------------------------------------
                                 ORCA SCF
-------------------------------------------------------------------------------

------------
SCF SETTINGS
------------
Hamiltonian:
 Density Functional     Method          .... DFT(GTOs)
 Exchange Functional    Exchange        .... WB97M-V
 Correlation Functional Correlation     .... WB97M-V
 Gradients option       PostSCFGGA      .... off
 Hybrid DFT is turned on
   Fraction HF Exchange ScalHFX         ....  0.150000
   Scaling of DF-GGA-X  ScalDFX         ....  0.000000
   Scaling of DF-GGA-C  ScalDFC         ....  1.000000
   Scaling of DF-LDA-C  ScalLDAC        ....  1.000000
   Perturbative correction              ....  0.000000
   Density functional embedding theory  .... OFF
 Long-range corrected/Screened/Range-Separated Hybrid DFT is turned on
   Amount of maximum screened exact exchange              ....  0.850000
   Range separation parameter mu (erf(mu*r12)/r12)        ....  0.300000
   NL short-range parameter             ....  6.000000
   NL long-range parameter              ....  0.010000


General Settings:
 Integral files         IntName         .... 51_CuCl
 Hartree-Fock type      HFTyp           .... RHF
 Total Charge           Charge          ....    0
 Multiplicity           Mult            ....    1
 Number of Electrons    NEL             ....   46
 Basis Dimension        Dim             ....  143
 Nuclear Repulsion      ENuc            ....    126.0808902629 Eh

Convergence Acceleration:
 DIIS                   CNVDIIS         .... on
   Start iteration      DIISMaxIt       ....    12
   Startup error        DIISStart       ....  0.200000
   # of expansion vecs  DIISMaxEq       ....     5
   Bias factor          DIISBfac        ....   1.050
   Max. coefficient     DIISMaxC        ....  10.000
 Newton-Raphson         CNVNR           .... off
 SOSCF                  CNVSOSCF        .... off
 Level Shifting         CNVShift        .... on
   Level shift para.    LevelShift      ....    0.2500
   Turn off err/grad.   ShiftErr        ....    0.0010
 Zerner damping         CNVZerner       .... off
 Static damping         CNVDamp         .... on
   Fraction old density DampFac         ....    0.7000
   Max. Damping (<1)    DampMax         ....    0.9800
   Min. Damping (>=0)   DampMin         ....    0.0000
   Turn off err/grad.   DampErr         ....    0.1000
 Fernandez-Rico         CNVRico         .... off

SCF Procedure:
 Maximum # iterations   MaxIter         ....   125
 SCF integral mode      SCFMode         .... Direct
   Integral package                     .... LIBINT
 Reset frequency        DirectResetFreq ....    20
 Integral Threshold     Thresh          ....  1.000e-10 Eh
 Primitive CutOff       TCut            ....  1.000e-11 Eh

Convergence Tolerance:
 Convergence Check Mode ConvCheckMode   .... Total+1el-Energy
 Convergence forced     ConvForced      .... 0
 Energy Change          TolE            ....  1.000e-06 Eh
 1-El. energy change                    ....  1.000e-03 Eh
 DIIS Error             TolErr          ....  1.000e-06


Diagonalization of the overlap matrix:
Smallest eigenvalue                        ... 2.330e-04
Time for diagonalization                   ...    0.005 sec
Threshold for overlap eigenvalues          ... 1.000e-08
Number of eigenvalues below threshold      ... 0
Time for construction of square roots      ...    0.003 sec
Total time needed                          ...    0.007 sec

-------------------
DFT GRID GENERATION
-------------------

General Integration Accuracy     IntAcc      ...  4.670
Radial Grid Type                 RadialGrid  ... Gauss-Chebyshev
Angular Grid (max. acc.)         AngularGrid ... Lebedev-302
Angular grid pruning method      GridPruning ... 3 (G Style)
Weight generation scheme         WeightScheme... Becke
Basis function cutoff            BFCut       ...    1.0000e-10
Integration weight cutoff        WCut        ...    1.0000e-14
Grids for H and He will be reduced by one unit

# of grid points (after initial pruning)     ...  16294 (   0.0 sec)
# of grid points (after weights+screening)   ...  16266 (   0.0 sec)
nearest neighbour list constructed           ...    0.0 sec
Grid point re-assignment to atoms done       ...    0.0 sec
Grid point division into batches done        ...    0.1 sec
Reduced shell lists constructed in    0.1 sec

Total number of grid points                  ...    16266
Total number of batches                      ...      255
Average number of points per batch           ...       63
Average number of grid points per atom       ...     8133
Average number of shells per batch           ...    14.42 (35.16%)
Average number of basis functions per batch  ...    33.08 (23.14%)
Average number of large shells per batch     ...     7.33 (50.87%)
Average number of large basis fcns per batch ...    17.83 (53.90%)
Maximum spatial batch extension              ...  23.02, 23.02, 16.62 au
Average spatial batch extension              ...   0.80,  0.79,  0.61 au

Time for grid setup =    0.153 sec

------------------------------
INITIAL GUESS: MODEL POTENTIAL
------------------------------
Loading Hartree-Fock densities                     ... done
Calculating cut-offs                               ... done
Setting up the integral package                    ... done
Initializing the effective Hamiltonian             ... done
Starting the Coulomb interaction                   ... done (   0.0 sec)
Reading the grid                                   ... done
Mapping shells                                     ... done
Starting the XC term evaluation                    ... done (   0.0 sec)
  promolecular density results
     # of electrons  =     46.000018247
     EX              =    -92.851395649
     EC              =     -2.009509681
     EX+EC           =    -94.860905331
Transforming the Hamiltonian                       ... done (   0.0 sec)
Diagonalizing the Hamiltonian                      ... done (   0.0 sec)
Back transforming the eigenvectors                 ... done (   0.0 sec)
Now organizing SCF variables                       ... done
                      ------------------
                      INITIAL GUESS DONE (   0.3 sec)
                      ------------------
--------------
SCF ITERATIONS
--------------
ITER       Energy         Delta-E        Max-DP      RMS-DP      [F,P]     Damp
               ***  Starting incremental Fock matrix formation  ***
  0  -2100.8481427673   0.000000000000 0.04675651  0.00129537  0.2230985 0.7000
  1  -2100.8722447098  -0.024101942460 0.03569982  0.00080006  0.0665958 0.7000
                               ***Turning on DIIS***
  2  -2100.8829032001  -0.010658490290 0.07331254  0.00164837  0.0385544 0.0000
  3  -2100.9048935486  -0.021990348510 0.01857774  0.00038652  0.0245664 0.0000
  4  -2100.9064129494  -0.001519400882 0.00520261  0.00012505  0.0070167 0.0000
  5  -2100.9064817170  -0.000068767594 0.00318032  0.00006105  0.0077719 0.0000
  6  -2100.9065410067  -0.000059289688 0.00368884  0.00005350  0.0017696 0.0000
  7  -2100.9065609968  -0.000019990043 0.00389128  0.00005634  0.0009264 0.0000
  8  -2100.9065699550  -0.000008958226 0.00079028  0.00001242  0.0004295 0.0000
  9  -2100.9065706954  -0.000000740449 0.00042551  0.00000515  0.0001699 0.0000
 10  -2100.9065708614  -0.000000165975 0.00033692  0.00000400  0.0001004 0.0000
 11  -2100.9065709360  -0.000000074612 0.00023904  0.00000296  0.0000579 0.0000
                 **** Energy Check signals convergence ****

               *****************************************************
               *                     SUCCESS                       *
               *           SCF CONVERGED AFTER  12 CYCLES          *
               *****************************************************


Setting up the DFT-NL grid :

General Integration Accuracy     IntAcc      ...  4.340
Radial Grid Type                 RadialGrid  ... Gauss-Chebyshev
Angular Grid (max. acc.)         AngularGrid ... Lebedev-110
Angular grid pruning method      GridPruning ... 3 (G Style)
Weight generation scheme         WeightScheme... Becke
Basis function cutoff            BFCut       ...    1.0000e-10
Integration weight cutoff        WCut        ...    1.0000e-14
Grids for H and He will be reduced by one unit

# of grid points (after initial pruning)     ...   4756 (   0.0 sec)
# of grid points (after weights+screening)   ...   4732 (   0.0 sec)
nearest neighbour list constructed           ...    0.0 sec
Grid point re-assignment to atoms done       ...    0.0 sec
Grid point division into batches done        ...    0.0 sec
Reduced shell lists constructed in    0.0 sec

Total number of grid points                  ...     4732
Total number of batches                      ...       75
Average number of points per batch           ...       63
Average number of grid points per atom       ...     2366
Average number of shells per batch           ...    20.80 (50.73%)
Average number of basis functions per batch  ...    59.20 (41.40%)
Average number of large shells per batch     ...    14.40 (69.23%)
Average number of large basis fcns per batch ...    35.20 (59.46%)
Maximum spatial batch extension              ...  17.39, 26.34, 14.89 au
Average spatial batch extension              ...   0.85,  1.17,  0.79 au

Final grid set up in    0.0 sec

-------------------------------------------------------------------------------
                         DFT-NL dispersion correction                          
-------------------------------------------------------------------------------

SC Energy -2100.906570965 
NL    Energy 0.193656977 
SC+NL Energy -2100.712913988 
NL done in    0.0 sec
-------------------------------------------------------------------------------

----------------
TOTAL SCF ENERGY
----------------

Total Energy       :        -2100.71291399 Eh          -57163.30452 eV

Components:
Nuclear Repulsion  :          126.08089026 Eh            3430.83544 eV
Electronic Energy  :        -2226.79380425 Eh          -60594.13996 eV
One Electron Energy:        -3175.06931217 Eh          -86398.02837 eV
Two Electron Energy:          948.27550792 Eh           25803.88841 eV

Virial components:
Potential Energy   :        -4198.58022089 Eh         -114249.17613 eV
Kinetic Energy     :         2097.86730690 Eh           57085.87161 eV
Virial Ratio       :            2.00135643


DFT components:
N(Alpha)           :       23.000004933731 electrons
N(Beta)            :       23.000004933731 electrons
N(Total)           :       46.000009867461 electrons
E(X)               :      -72.881873739370 Eh       
E(C)               :       -2.361362886348 Eh       
NL Energy, E(C,NL) :        0.193656976856 Eh       
E(XC)              :      -75.049579648862 Eh       
DFET-embed. en.    :        0.000000000000 Eh       

---------------
SCF CONVERGENCE
---------------

  Last Energy change         ...   -2.8923e-08  Tolerance :   1.0000e-06
  Last MAX-Density change    ...    9.5871e-05  Tolerance :   1.0000e-05
  Last RMS-Density change    ...    1.1286e-06  Tolerance :   1.0000e-06
  Last DIIS Error            ...    2.0968e-05  Tolerance :   1.0000e-06

             **** THE GBW FILE WAS UPDATED (51_CuCl.gbw) ****
             **** DENSITY FILE WAS UPDATED (51_CuCl.scfp) ****
             **** ENERGY FILE WAS UPDATED (51_CuCl.en.tmp) ****
             **** THE GBW FILE WAS UPDATED (51_CuCl.gbw) ****
             **** DENSITY FILE WAS UPDATED (51_CuCl.scfp) ****
----------------
ORBITAL ENERGIES
----------------

  NO   OCC          E(Eh)            E(eV) 
   0   2.0000    -323.567145     -8804.7096 
   1   2.0000    -101.837812     -2771.1477 
   2   2.0000     -39.080580     -1063.4366 
   3   2.0000     -34.180702      -930.1042 
   4   2.0000     -34.180702      -930.1042 
   5   2.0000     -34.179700      -930.0769 
   6   2.0000      -9.594873      -261.0898 
   7   2.0000      -7.296745      -198.5545 
   8   2.0000      -7.293066      -198.4544 
   9   2.0000      -7.293066      -198.4544 
  10   2.0000      -4.486676      -122.0887 
  11   2.0000      -2.953746       -80.3755 
  12   2.0000      -2.949077       -80.2485 
  13   2.0000      -2.949077       -80.2485 
  14   2.0000      -0.878335       -23.9007 
  15   2.0000      -0.464704       -12.6452 
  16   2.0000      -0.442856       -12.0507 
  17   2.0000      -0.442856       -12.0507 
  18   2.0000      -0.420179       -11.4337 
  19   2.0000      -0.420176       -11.4336 
  20   2.0000      -0.377487       -10.2720 
  21   2.0000      -0.364042        -9.9061 
  22   2.0000      -0.364042        -9.9061 
  23   0.0000      -0.054186        -1.4745 
  24   0.0000       0.011304         0.3076 
  25   0.0000       0.011305         0.3076 
  26   0.0000       0.021516         0.5855 
  27   0.0000       0.024966         0.6794 
  28   0.0000       0.071425         1.9436 
  29   0.0000       0.071425         1.9436 
  30   0.0000       0.104405         2.8410 
  31   0.0000       0.118104         3.2138 
  32   0.0000       0.127209         3.4615 
  33   0.0000       0.127209         3.4615 
  34   0.0000       0.158484         4.3126 
  35   0.0000       0.158484         4.3126 
  36   0.0000       0.160416         4.3652 
  37   0.0000       0.206319         5.6142 
  38   0.0000       0.206319         5.6142 
  39   0.0000       0.216441         5.8896 
  40   0.0000       0.261482         7.1153 
  41   0.0000       0.261482         7.1153 
  42   0.0000       0.293961         7.9991 
  43   0.0000       0.359924         9.7940 
  44   0.0000       0.359926         9.7941 
  45   0.0000       0.381588        10.3835 
  46   0.0000       0.445627        12.1261 
  47   0.0000       0.445627        12.1261 
  48   0.0000       0.457623        12.4526 
  49   0.0000       0.632341        17.2069 
  50   0.0000       0.632341        17.2069 
  51   0.0000       0.633827        17.2473 
  52   0.0000       0.633832        17.2474 
  53   0.0000       0.693676        18.8759 
  54   0.0000       0.708950        19.2915 
  55   0.0000       0.708950        19.2915 
  56   0.0000       0.785727        21.3807 
  57   0.0000       0.851879        23.1808 
  58   0.0000       0.870285        23.6817 
  59   0.0000       0.870286        23.6817 
  60   0.0000       0.881389        23.9838 
  61   0.0000       0.916819        24.9479 
  62   0.0000       0.916819        24.9479 
  63   0.0000       1.036142        28.1949 
  64   0.0000       1.036142        28.1949 
  65   0.0000       1.110019        30.2052 
  66   0.0000       1.110019        30.2052 
  67   0.0000       1.111120        30.2351 
  68   0.0000       1.111133        30.2355 
  69   0.0000       1.139488        31.0071 
  70   0.0000       1.266874        34.4734 
  71   0.0000       1.321715        35.9657 
  72   0.0000       1.321715        35.9657 
  73   0.0000       1.520829        41.3838 
  74   0.0000       1.520829        41.3838 
  75   0.0000       1.669280        45.4234 
  76   0.0000       1.669288        45.4236 
  77   0.0000       1.739239        47.3271 
  78   0.0000       1.924153        52.3589 
  79   0.0000       1.924153        52.3589 
  80   0.0000       2.055524        55.9337 
  81   0.0000       2.238487        60.9123 
  82   0.0000       2.238509        60.9129 
  83   0.0000       2.263001        61.5794 
  84   0.0000       2.263001        61.5794 
  85   0.0000       2.268194        61.7207 
  86   0.0000       2.337359        63.6028 
  87   0.0000       2.337395        63.6037 
  88   0.0000       2.448027        66.6142 
  89   0.0000       2.448027        66.6142 
  90   0.0000       2.554900        69.5224 
  91   0.0000       2.595490        70.6269 
  92   0.0000       2.595490        70.6269 
  93   0.0000       2.852935        77.6323 
  94   0.0000       2.852935        77.6323 
  95   0.0000       2.883566        78.4658 
  96   0.0000       2.883630        78.4676 
  97   0.0000       2.940769        80.0224 
  98   0.0000       2.975340        80.9631 
  99   0.0000       2.975340        80.9631 
 100   0.0000       3.337031        90.8052 
 101   0.0000       4.014294       109.2345 
 102   0.0000       4.393141       119.5435 
 103   0.0000       4.393141       119.5435 
 104   0.0000       4.469001       121.6077 
 105   0.0000       4.469001       121.6077 
 106   0.0000       4.522465       123.0625 
 107   0.0000       4.522481       123.0630 
 108   0.0000       4.678602       127.3112 
 109   0.0000       4.687207       127.5454 
 110   0.0000       4.687207       127.5454 
 111   0.0000       5.050712       137.4369 
 112   0.0000       6.036069       164.2498 
 113   0.0000       6.175720       168.0499 
 114   0.0000       6.175720       168.0499 
 115   0.0000       6.178880       168.1359 
 116   0.0000       6.179084       168.1414 
 117   0.0000       6.184862       168.2986 
 118   0.0000       6.184878       168.2991 
 119   0.0000       6.248493       170.0301 
 120   0.0000       6.248493       170.0301 
 121   0.0000       6.416949       174.6141 
 122   0.0000       8.078047       219.8148 
 123   0.0000       8.078071       219.8155 
 124   0.0000       8.140055       221.5022 
 125   0.0000       8.140055       221.5022 
 126   0.0000       8.621382       234.5997 
 127   0.0000      14.214515       386.7966 
 128   0.0000      14.214515       386.7966 
 129   0.0000      14.241648       387.5349 
 130   0.0000      14.241756       387.5379 
 131   0.0000      14.332018       389.9940 
 132   0.0000      14.332018       389.9940 
 133   0.0000      14.386725       391.4827 
 134   0.0000      16.704159       454.5433 
 135   0.0000      16.704159       454.5433 
 136   0.0000      16.705637       454.5835 
 137   0.0000      16.705660       454.5841 
 138   0.0000      16.708750       454.6682 
 139   0.0000      16.709174       454.6797 
 140   0.0000      16.738224       455.4702 
 141   0.0000      16.738224       455.4702 
 142   0.0000      16.792455       456.9459 

                    ********************************
                    * MULLIKEN POPULATION ANALYSIS *
                    ********************************

-----------------------
MULLIKEN ATOMIC CHARGES
-----------------------
   0 Cu:    0.537155
   1 Cl:   -0.537155
Sum of atomic charges:   -0.0000000

--------------------------------
MULLIKEN REDUCED ORBITAL CHARGES
--------------------------------
  0 Cus       :     6.365650  s :     6.365650
      pz      :     4.086313  p :    12.176362
      px      :     4.045025
      py      :     4.045025
      dz2     :     1.925041  d :     9.914174
      dxz     :     1.995231
      dyz     :     1.995231
      dx2y2   :     1.999335
      dxy     :     1.999335
      f0      :     0.002409  f :     0.006599
      f+1     :     0.002035
      f-1     :     0.002035
      f+2     :     0.000060
      f-2     :     0.000060
      f+3     :     0.000000
      f-3     :     0.000000
      g0      :     0.000027  g :     0.000060
      g+1     :     0.000016
      g-1     :     0.000016
      g+2     :     0.000001
      g-2     :     0.000001
      g+3     :     0.000000
      g-3     :     0.000000
      g+4     :     0.000000
      g-4     :     0.000000
  1 Cls       :     5.947865  s :     5.947865
      pz      :     3.661708  p :    11.561722
      px      :     3.950007
      py      :     3.950007
      dz2     :     0.010212  d :     0.024122
      dxz     :     0.006553
      dyz     :     0.006553
      dx2y2   :     0.000402
      dxy     :     0.000402
      f0      :     0.000774  f :     0.003446
      f+1     :     0.001134
      f-1     :     0.001134
      f+2     :     0.000202
      f-2     :     0.000202
      f+3     :     0.000000
      f-3     :     0.000000


                     *******************************
                     * LOEWDIN POPULATION ANALYSIS *
                     *******************************

----------------------
LOEWDIN ATOMIC CHARGES
----------------------
   0 Cu:    0.050386
   1 Cl:   -0.050386

-------------------------------
LOEWDIN REDUCED ORBITAL CHARGES
-------------------------------
  0 Cus       :     6.353904  s :     6.353904
      pz      :     4.231131  p :    12.414170
      px      :     4.091519
      py      :     4.091519
      dz2     :     2.044418  d :    10.133788
      dxz     :     2.049093
      dyz     :     2.049093
      dx2y2   :     1.995593
      dxy     :     1.995593
      f0      :     0.021783  f :     0.047392
      f+1     :     0.012697
      f-1     :     0.012697
      f+2     :     0.000107
      f-2     :     0.000107
      f+3     :     0.000000
      f-3     :     0.000000
      g0      :     0.000196  g :     0.000360
      g+1     :     0.000082
      g-1     :     0.000082
      g+2     :     0.000000
      g-2     :     0.000000
      g+3     :     0.000000
      g-3     :     0.000000
      g+4     :     0.000000
      g-4     :     0.000000
  1 Cls       :     5.622885  s :     5.622885
      pz      :     3.598074  p :    11.198968
      px      :     3.800447
      py      :     3.800447
      dz2     :     0.085449  d :     0.138360
      dxz     :     0.024445
      dyz     :     0.024445
      dx2y2   :     0.002010
      dxy     :     0.002010
      f0      :     0.042160  f :     0.090173
      f+1     :     0.021717
      f-1     :     0.021717
      f+2     :     0.002290
      f-2     :     0.002290
      f+3     :     0.000000
      f-3     :     0.000000


                      *****************************
                      * MAYER POPULATION ANALYSIS *
                      *****************************

  NA   - Mulliken gross atomic population
  ZA   - Total nuclear charge
  QA   - Mulliken gross atomic charge
  VA   - Mayer's total valence
  BVA  - Mayer's bonded valence
  FA   - Mayer's free valence

  ATOM       NA         ZA         QA         VA         BVA        FA
  0 Cu    28.4628    29.0000     0.5372     0.9500     0.9500    -0.0000
  1 Cl    17.5372    17.0000    -0.5372     0.9500     0.9500    -0.0000

  Mayer bond orders larger than 0.100000
B(  0-Cu,  1-Cl) :   0.9500 

-------
TIMINGS
-------

Total SCF time: 0 days 0 hours 3 min 42 sec 

Total time                  ....     222.972 sec
Sum of individual times     ....     222.662 sec  ( 99.9%)

Fock matrix formation       ....     222.325 sec  ( 99.7%)
  XC integration            ....       0.442 sec  (  0.2% of F)
    Basis function eval.    ....       0.071 sec  ( 16.1% of XC)
    Density eval.           ....       0.043 sec  (  9.8% of XC)
    XC-Functional eval.     ....       0.016 sec  (  3.6% of XC)
    XC-Potential eval.      ....       0.097 sec  ( 21.9% of XC)
Diagonalization             ....       0.036 sec  (  0.0%)
Density matrix formation    ....       0.005 sec  (  0.0%)
Population analysis         ....       0.004 sec  (  0.0%)
Initial guess               ....       0.101 sec  (  0.0%)
Orbital Transformation      ....       0.000 sec  (  0.0%)
Orbital Orthonormalization  ....       0.000 sec  (  0.0%)
DIIS solution               ....       0.017 sec  (  0.0%)
Grid generation             ....       0.175 sec  (  0.1%)

-------------------------   --------------------
FINAL SINGLE POINT ENERGY     -2100.712913988096
-------------------------   --------------------


                            ***************************************
                            *     ORCA property calculations      *
                            ***************************************

                                    ---------------------
                                    Active property flags
                                    ---------------------
   (+) Dipole Moment


------------------------------------------------------------------------------
                       ORCA ELECTRIC PROPERTIES CALCULATION
------------------------------------------------------------------------------

Dipole Moment Calculation                       ... on
Quadrupole Moment Calculation                   ... off
Polarizability Calculation                      ... off
GBWName                                         ... 51_CuCl.gbw
Electron density file                           ... 51_CuCl.scfp
The origin for moment calculation is the CENTER OF MASS  = ( 0.000000,  0.000000  1.334871)

-------------
DIPOLE MOMENT
-------------
                                X             Y             Z
Electronic contribution:     -0.00000       0.00000      -4.17112
Nuclear contribution   :      0.00000       0.00000       2.06219
                        -----------------------------------------
Total Dipole Moment    :     -0.00000       0.00000      -2.10893
                        -----------------------------------------
Magnitude (a.u.)       :      2.10893
Magnitude (Debye)      :      5.36049



--------------------
Rotational spectrum 
--------------------
 
Rotational constants in cm-1:     0.000000     0.173013     0.173013 
Rotational constants in MHz :     0.000000  5186.804112  5186.804112 

 Dipole components along the rotational axes: 
x,y,z [a.u.] :    -2.108935     0.000000    -0.000000 
x,y,z [Debye]:    -5.360487     0.000000    -0.000000 

 

Timings for individual modules:

Sum of individual times         ...      226.854 sec (=   3.781 min)
GTO integral calculation        ...        3.419 sec (=   0.057 min)   1.5 %
SCF iterations                  ...      223.435 sec (=   3.724 min)  98.5 %
                             ****ORCA TERMINATED NORMALLY****
TOTAL RUN TIME: 0 days 0 hours 3 minutes 47 seconds 449 msec
