
                                 *****************
                                 * O   R   C   A *
                                 *****************

           --- An Ab Initio, DFT and Semiempirical electronic structure package ---

                  #######################################################
                  #                        -***-                        #
                  #          Department of theory and spectroscopy      #
                  #               Directorship: Frank Neese             #
                  #        Max Planck Institute fuer Kohlenforschung    #
                  #                Kaiser Wilhelm Platz 1               #
                  #                 D-45470 Muelheim/Ruhr               #
                  #                      Germany                        #
                  #                                                     #
                  #                  All rights reserved                #
                  #                        -***-                        #
                  #######################################################


                         Program Version 4.2.0 -  RELEASE  -


 With contributions from (in alphabetic order):
   Daniel Aravena         : Magnetic Suceptibility
   Michael Atanasov       : Ab Initio Ligand Field Theory (pilot matlab implementation)
   Alexander A. Auer      : GIAO ZORA, VPT2
   Ute Becker             : Parallelization
   Giovanni Bistoni       : ED, misc. LED, open-shell LED, HFLED
   Martin Brehm           : Molecular dynamics
   Dmytro Bykov           : SCF Hessian
   Vijay G. Chilkuri      : MRCI spin determinant printing, contributions to CSF-ICE
   Dipayan Datta          : RHF DLPNO-CCSD density
   Achintya Kumar Dutta   : EOM-CC, STEOM-CC
   Dmitry Ganyushin       : Spin-Orbit,Spin-Spin,Magnetic field MRCI
   Miquel Garcia          : C-PCM Hessian, Gaussian charge scheme
   Yang Guo               : DLPNO-NEVPT2, CIM, IAO-localization
   Andreas Hansen         : Spin unrestricted coupled pair/coupled cluster methods
   Benjamin Helmich-Paris : CASSCF linear response (MC-RPA)
   Lee Huntington         : MR-EOM, pCC
   Robert Izsak           : Overlap fitted RIJCOSX, COSX-SCS-MP3, EOM
   Christian Kollmar      : KDIIS, OOCD, Brueckner-CCSD(T), CCSD density
   Simone Kossmann        : Meta GGA functionals, TD-DFT gradient, OOMP2, MP2 Hessian
   Martin Krupicka        : AUTO-CI
   Lucas Lang             : DCDCAS
   Dagmar Lenk            : GEPOL surface, SMD
   Dimitrios Liakos       : Extrapolation schemes; Compound Job, initial MDCI parallelization
   Dimitrios Manganas     : Further ROCIS development; embedding schemes
   Dimitrios Pantazis     : SARC Basis sets
   Taras Petrenko         : DFT Hessian,TD-DFT gradient, ASA, ECA, R-Raman, ABS, FL, XAS/XES, NRVS
   Peter Pinski           : DLPNO-MP2, DLPNO-MP2 Gradient
   Christoph Reimann      : Effective Core Potentials
   Marius Retegan         : Local ZFS, SOC
   Christoph Riplinger    : Optimizer, TS searches, QM/MM, DLPNO-CCSD(T), (RO)-DLPNO pert. Triples
   Tobias Risthaus        : Range-separated hybrids, TD-DFT gradient, RPA, STAB
   Michael Roemelt        : Original ROCIS implementation
   Masaaki Saitow         : Open-shell DLPNO-CCSD energy and density
   Barbara Sandhoefer     : DKH picture change effects
   Avijit Sen             : IP-ROCIS
   Kantharuban Sivalingam : CASSCF convergence, NEVPT2, FIC-MRCI
   Bernardo de Souza      : ESD, SOC TD-DFT
   Georgi Stoychev        : AutoAux, RI-MP2 NMR
   Willem Van den Heuvel  : Paramagnetic NMR
   Boris Wezisla          : Elementary symmetry handling
   Frank Wennmohs         : Technical directorship


 We gratefully acknowledge several colleagues who have allowed us to
 interface, adapt or use parts of their codes:
   Stefan Grimme, W. Hujo, H. Kruse,             : VdW corrections, initial TS optimization,
                  C. Bannwarth                     DFT functionals, gCP, sTDA/sTD-DF
   Ed Valeev, F. Pavosevic, A. Kumar             : LibInt (2-el integral package), F12 methods
   Garnet Chan, S. Sharma, J. Yang, R. Olivares  : DMRG
   Ulf Ekstrom                                   : XCFun DFT Library
   Mihaly Kallay                                 : mrcc  (arbitrary order and MRCC methods)
   Andreas Klamt, Michael Diedenhofen            : otool_cosmo (COSMO solvation model)
   Jiri Pittner, Ondrej Demel                    : Mk-CCSD
   Frank Weinhold                                : gennbo (NPA and NBO analysis)
   Christopher J. Cramer and Donald G. Truhlar   : smd solvation model
   Lars Goerigk                                  : TD-DFT with DH, B97 family of functionals
   V. Asgeirsson, H. Jonsson                     : NEB implementation
   FAccTs GmbH                                   : IRC, NEB, NEB-TS, Multilevel, MM, QM/MM, CI optimization
   S Lehtola, MJT Oliveira, MAL Marques          : LibXC Library


 Your calculation uses the libint2 library for the computation of 2-el integrals
 For citations please refer to: http://libint.valeyev.net

 Your ORCA version has been built with support for libXC version: 4.2.3
 For citations please refer to: https://tddft.org/programs/libxc/

 This ORCA versions uses:
   CBLAS   interface :  Fast vector & matrix operations
   LAPACKE interface :  Fast linear algebra routines
   SCALAPACK package :  Parallel linear algebra routines


Your calculation utilizes the DFT-NL dispersion correction.
Cite in your paper:
Vydrov, O. A.; Van Voorhis, T. J. Chem. Phys. 2010, 133, 244103
Hujo, W.; Grimme, S. J. Chem. Theory Comput. 2011, 7, 3866 
   

----- Orbital basis set information -----
Your calculation utilizes the basis: aug-cc-pVTZ 
    H, B-Ne : Obtained from the ccRepo (grant-hill.group.shef.ac.uk/ccrepo) Feb. 2017
              R. A. Kendall, T. H. Dunning, Jr., R. J. Harrison, J. Chem. Phys. 96, 6796 (1992)
         He : Obtained from the ccRepo (grant-hill.group.shef.ac.uk/ccrepo) Feb. 2017
              D. E. Woon, T. H. Dunning, Jr., J. Chem. Phys. 100, 2975 (1994)
  Li-Be, Na : Obtained from the ccRepo (grant-hill.group.shef.ac.uk/ccrepo) Feb. 2017
              B. P. Prascher, D. E. Woon, K. A. Peterson, T. H. Dunning, Jr., A. K. Wilson, Theor. Chem. Acc. 128, 69 (2011)
         Mg : Obtained from the Peterson Research Group Website (tyr0.chem.wsu.edu/~kipeters) Feb. 2017
              B. P. Prascher, D. E. Woon, K. A. Peterson, T. H. Dunning, Jr., A. K. Wilson, Theor. Chem. Acc. 128, 69 (2011)
      Al-Ar : Obtained from the ccRepo (grant-hill.group.shef.ac.uk/ccrepo) Feb. 2017
              D. E. Woon, T. H. Dunning, Jr., J. Chem. Phys. 98, 1358 (1993)
      Sc-Zn : Obtained from the ccRepo (grant-hill.group.shef.ac.uk/ccrepo) Feb. 2017
              N. B. Balabanov, K. A. Peterson, J. Chem. Phys. 123, 064107 (2005)
              N. B. Balabanov, K. A. Peterson, J. Chem. Phys. 125, 074110 (2006)
      Ga-Kr : Obtained from the ccRepo (grant-hill.group.shef.ac.uk/ccrepo) Feb. 2017
              A. K. Wilson, D. E. Woon, K. A. Peterson, T. H. Dunning, Jr., J. Chem. Phys. 110, 7667 (1999)
     Ag, Au : Obtained from the Peterson Research Group Website (tyr0.chem.wsu.edu/~kipeters) Feb. 2017
              K. A. Peterson, C. Puzzarini, Theor. Chem. Acc. 114, 283 (2005)

----- AuxJK basis set information -----
Your calculation utilizes the auxiliary basis: def2/JK
   H-Ba, Hf-Rn: F. Weigend, J. Comput. Chem. 29, 167 (2008).

================================================================================
                                        WARNINGS
                       Please study these warnings very carefully!
================================================================================


WARNING: your system is open-shell and RHF/RKS was chosen
  ===> : WILL SWITCH to UHF/UKS


INFO   : the flag for use of LIBINT has been found!

================================================================================
                                       INPUT FILE
================================================================================
NAME = 63_V.in
|  1> #
|  2> # 63_V wb97m-v/aug-cc-pvtz
|  3> #
|  4> ! wb97m-v aug-cc-pvtz def2/jk grid4 nofinalgrid
|  5> 
|  6> *xyz 0 4
|  7> V 0.0 0.0 0.0
|  8> *
|  9> 
| 10> %pal
| 11> nprocs 24
| 12> end
| 13> 
| 14> 
| 15>                          ****END OF INPUT****
================================================================================

                       ****************************
                       * Single Point Calculation *
                       ****************************

---------------------------------
CARTESIAN COORDINATES (ANGSTROEM)
---------------------------------
  V      0.000000    0.000000    0.000000

----------------------------
CARTESIAN COORDINATES (A.U.)
----------------------------
  NO LB      ZA    FRAG     MASS         X           Y           Z
   0 V    23.0000    0    50.940    0.000000    0.000000    0.000000

--------------------------------
INTERNAL COORDINATES (ANGSTROEM)
--------------------------------
 V      0   0   0     0.000000000000     0.00000000     0.00000000

---------------------------
INTERNAL COORDINATES (A.U.)
---------------------------
 V      0   0   0     0.000000000000     0.00000000     0.00000000

---------------------
BASIS SET INFORMATION
---------------------
There are 1 groups of distinct atoms

 Group   1 Type V   : 116s77p23d3f2g contracted to 8s7p5d3f2g pattern {19191919191911/151515151511/77711/111/11}

Atom   0V    basis set group =>   1
----------------------------------
AUXILIARY/JK BASIS SET INFORMATION
----------------------------------
There are 1 groups of distinct atoms

 Group   1 Type V   : 19s14p12d10f7g3h1i contracted to 16s13p11d9f5g3h1i pattern {4111111111111111/2111111111111/21111111111/211111111/31111/111/1}

Atom   0V    basis set group =>   1


           ************************************************************
           *        Program running with 24 parallel MPI-processes    *
           *              working on a common directory               *
           ************************************************************
------------------------------------------------------------------------------
                           ORCA GTO INTEGRAL CALCULATION
------------------------------------------------------------------------------

                         BASIS SET STATISTICS AND STARTUP INFO

 # of primitive gaussian shells          ...  221
 # of primitive gaussian functions       ...  501
 # of contracted shells                  ...   25
 # of contracted basis functions         ...   93
 Highest angular momentum                ...    4
 Maximum contraction depth               ...   19
 Integral package used                   ... LIBINT
 Integral threshhold            Thresh   ...  1.000e-10
 Primitive cut-off              TCut     ...  1.000e-11


------------------------------ INTEGRAL EVALUATION ----------------------------


 * One electron integrals 
 Pre-screening matrix                    ... done
 Shell pair data                         ... done (   0.001 sec)



           ************************************************************
           *        Program running with 24 parallel MPI-processes    *
           *              working on a common directory               *
           ************************************************************
-------------------------------------------------------------------------------
                                 ORCA SCF
-------------------------------------------------------------------------------

------------
SCF SETTINGS
------------
Hamiltonian:
 Density Functional     Method          .... DFT(GTOs)
 Exchange Functional    Exchange        .... WB97M-V
 Correlation Functional Correlation     .... WB97M-V
 Gradients option       PostSCFGGA      .... off
 Hybrid DFT is turned on
   Fraction HF Exchange ScalHFX         ....  0.150000
   Scaling of DF-GGA-X  ScalDFX         ....  0.000000
   Scaling of DF-GGA-C  ScalDFC         ....  1.000000
   Scaling of DF-LDA-C  ScalLDAC        ....  1.000000
   Perturbative correction              ....  0.000000
   Density functional embedding theory  .... OFF
 Long-range corrected/Screened/Range-Separated Hybrid DFT is turned on
   Amount of maximum screened exact exchange              ....  0.850000
   Range separation parameter mu (erf(mu*r12)/r12)        ....  0.300000
   NL short-range parameter             ....  6.000000
   NL long-range parameter              ....  0.010000


General Settings:
 Integral files         IntName         .... 63_V
 Hartree-Fock type      HFTyp           .... UHF
 Total Charge           Charge          ....    0
 Multiplicity           Mult            ....    4
 Number of Electrons    NEL             ....   23
 Basis Dimension        Dim             ....   93
 Nuclear Repulsion      ENuc            ....      0.0000000000 Eh

Convergence Acceleration:
 DIIS                   CNVDIIS         .... on
   Start iteration      DIISMaxIt       ....    12
   Startup error        DIISStart       ....  0.200000
   # of expansion vecs  DIISMaxEq       ....     5
   Bias factor          DIISBfac        ....   1.050
   Max. coefficient     DIISMaxC        ....  10.000
 Newton-Raphson         CNVNR           .... off
 SOSCF                  CNVSOSCF        .... off
 Level Shifting         CNVShift        .... on
   Level shift para.    LevelShift      ....    0.2500
   Turn off err/grad.   ShiftErr        ....    0.0010
 Zerner damping         CNVZerner       .... off
 Static damping         CNVDamp         .... on
   Fraction old density DampFac         ....    0.7000
   Max. Damping (<1)    DampMax         ....    0.9800
   Min. Damping (>=0)   DampMin         ....    0.0000
   Turn off err/grad.   DampErr         ....    0.1000
 Fernandez-Rico         CNVRico         .... off

SCF Procedure:
 Maximum # iterations   MaxIter         ....   125
 SCF integral mode      SCFMode         .... Direct
   Integral package                     .... LIBINT
 Reset frequency        DirectResetFreq ....    20
 Integral Threshold     Thresh          ....  1.000e-10 Eh
 Primitive CutOff       TCut            ....  1.000e-11 Eh

Convergence Tolerance:
 Convergence Check Mode ConvCheckMode   .... Total+1el-Energy
 Convergence forced     ConvForced      .... 0
 Energy Change          TolE            ....  1.000e-06 Eh
 1-El. energy change                    ....  1.000e-03 Eh
 DIIS Error             TolErr          ....  1.000e-06


Diagonalization of the overlap matrix:
Smallest eigenvalue                        ... 1.570e-04
Time for diagonalization                   ...    0.003 sec
Threshold for overlap eigenvalues          ... 1.000e-08
Number of eigenvalues below threshold      ... 0
Time for construction of square roots      ...    0.002 sec
Total time needed                          ...    0.005 sec

-------------------
DFT GRID GENERATION
-------------------

General Integration Accuracy     IntAcc      ...  4.670
Radial Grid Type                 RadialGrid  ... Gauss-Chebyshev
Angular Grid (max. acc.)         AngularGrid ... Lebedev-302
Angular grid pruning method      GridPruning ... 3 (G Style)
Weight generation scheme         WeightScheme... Becke
Basis function cutoff            BFCut       ...    1.0000e-10
Integration weight cutoff        WCut        ...    1.0000e-14
Grids for H and He will be reduced by one unit

# of grid points (after initial pruning)     ...   9664 (   0.0 sec)
# of grid points (after weights+screening)   ...   9664 (   0.0 sec)
Grid point division into batches done        ...    0.1 sec
Reduced shell lists constructed in    0.1 sec

Total number of grid points                  ...     9664
Total number of batches                      ...      152
Average number of points per batch           ...       63
Average number of grid points per atom       ...     9664
Average number of shells per batch           ...    11.75 (47.00%)
Average number of basis functions per batch  ...    28.50 (30.65%)
Average number of large shells per batch     ...     5.88 (50.00%)
Average number of large basis fcns per batch ...    16.88 (59.21%)
Maximum spatial batch extension              ...  27.95, 22.27, 22.27 au
Average spatial batch extension              ...   0.96,  0.88,  0.86 au

Time for grid setup =    0.129 sec

------------------------------
INITIAL GUESS: MODEL POTENTIAL
------------------------------
Loading Hartree-Fock densities                     ... done
Calculating cut-offs                               ... done
Setting up the integral package                    ... done
Initializing the effective Hamiltonian             ... done
Starting the Coulomb interaction                   ... done (   0.0 sec)
Reading the grid                                   ... done
Mapping shells                                     ... done
Starting the XC term evaluation                    ... done (   0.0 sec)
  promolecular density results
     # of electrons  =     23.000003052
     EX              =    -43.918520832
     EC              =     -0.944824995
     EX+EC           =    -44.863345827
Transforming the Hamiltonian                       ... done (   0.0 sec)
Diagonalizing the Hamiltonian                      ... done (   0.0 sec)
Back transforming the eigenvectors                 ... done (   0.0 sec)
Now organizing SCF variables                       ... done
                      ------------------
                      INITIAL GUESS DONE (   0.2 sec)
                      ------------------
--------------
SCF ITERATIONS
--------------
ITER       Energy         Delta-E        Max-DP      RMS-DP      [F,P]     Damp
               ***  Starting incremental Fock matrix formation  ***
  0   -943.5491310014   0.00000000000033.53121611  0.46898879  0.4977565 0.7000
  1   -943.5905536047  -0.041422603292 8.61279907  0.12172133  0.1613715 0.7000
                               ***Turning on DIIS***
  2   -943.6323347720  -0.04178116725924.07736911  0.33827303  0.0531715 0.0000
  3   -943.7870287250  -0.154693953024 0.32133908  0.00496095  0.0906832 0.0000
  4   -943.8165376132  -0.029508888217 0.45036996  0.00659996  0.0570427 0.0000
  5   -943.8353467783  -0.018809165110 0.04782825  0.00087197  0.0297799 0.0000
  6   -943.8429348550  -0.007588076728 0.02781769  0.00056025  0.0213061 0.0000
  7   -943.8480859638  -0.005151108708 0.07511437  0.00126204  0.0271186 0.0000
  8   -943.8512493271  -0.003163363397 0.03166849  0.00042651  0.0292580 0.0000
  9   -943.8553326858  -0.004083358602 0.05978007  0.00099807  0.0327725 0.0000
 10   -943.8599831369  -0.004650451191 0.04366785  0.00055834  0.0358309 0.0000
 11   -943.8647683659  -0.004785228961 0.03060974  0.00068583  0.0391477 0.0000
 12   -943.8683194025  -0.003551036590 0.04635759  0.00076261  0.0411974 0.0000
 13   -943.8698174860  -0.001498083474 0.02432641  0.00067227  0.0421213 0.0000
 14   -943.8727649078  -0.002947421881 0.15842795  0.00221757  0.0432466 0.0000
 15   -943.8820441367  -0.009279228844 0.09826887  0.00098937  0.0450467 0.0000
 16   -943.8946703382  -0.012626201553 0.10594609  0.00104453  0.0453821 0.0000
 17   -943.9055668606  -0.010896522363 0.15282972  0.00153633  0.0434545 0.0000
 18   -943.9191279823  -0.013561121660 0.40903452  0.00546512  0.0377994 0.0000
 19   -943.9290794751  -0.009951492861 0.07705071  0.00131658  0.0222175 0.0000
               *** Restarting incremental Fock matrix formation ***
                                   *** Resetting DIIS ***
 20   -943.9317706220  -0.002691146921 0.13087563  0.00195391  0.0139101 0.0000
 21   -943.9333660885  -0.001595466460 0.10864378  0.00107549  0.0095283 0.0000
 22   -943.9341805174  -0.000814428903 0.04019289  0.00044647  0.0065556 0.0000
 23   -943.9345781146  -0.000397597218 0.01011163  0.00024718  0.0041356 0.0000
 24   -943.9347756368  -0.000197522131 0.00851468  0.00017281  0.0030308 0.0000
 25   -943.9349464592  -0.000170822392 0.00803995  0.00012869  0.0034137 0.0000
 26   -943.9350834691  -0.000137009974 0.00736850  0.00009461  0.0038123 0.0000
 27   -943.9351995550  -0.000116085832 0.00513089  0.00006177  0.0041039 0.0000
 28   -943.9352787890  -0.000079234076 0.00289593  0.00003876  0.0042923 0.0000
 29   -943.9353243037  -0.000045514707 0.00097468  0.00001482  0.0044034 0.0000
 30   -943.9353413346  -0.000017030908 0.00033406  0.00000695  0.0044367 0.0000
                 **** Energy Check signals convergence ****

               *****************************************************
               *                     SUCCESS                       *
               *           SCF CONVERGED AFTER  31 CYCLES          *
               *****************************************************


Setting up the DFT-NL grid :

General Integration Accuracy     IntAcc      ...  4.340
Radial Grid Type                 RadialGrid  ... Gauss-Chebyshev
Angular Grid (max. acc.)         AngularGrid ... Lebedev-110
Angular grid pruning method      GridPruning ... 3 (G Style)
Weight generation scheme         WeightScheme... Becke
Basis function cutoff            BFCut       ...    1.0000e-10
Integration weight cutoff        WCut        ...    1.0000e-14
Grids for H and He will be reduced by one unit

# of grid points (after initial pruning)     ...   2972 (   0.0 sec)
# of grid points (after weights+screening)   ...   2972 (   0.0 sec)
Grid point division into batches done        ...    0.0 sec
Reduced shell lists constructed in    0.0 sec

Total number of grid points                  ...     2972
Total number of batches                      ...       47
Average number of points per batch           ...       63
Average number of grid points per atom       ...     2972
Average number of shells per batch           ...    15.33 (61.33%)
Average number of basis functions per batch  ...    51.33 (55.20%)
Average number of large shells per batch     ...    12.00 (78.26%)
Average number of large basis fcns per batch ...    37.33 (72.73%)
Maximum spatial batch extension              ...  18.71, 28.73, 28.73 au
Average spatial batch extension              ...   0.80,  1.22,  1.22 au

Final grid set up in    0.0 sec

-------------------------------------------------------------------------------
                         DFT-NL dispersion correction                          
-------------------------------------------------------------------------------

SC Energy -943.935340788 
NL    Energy 0.097652694 
SC+NL Energy -943.837688095 
NL done in    0.0 sec
-------------------------------------------------------------------------------

----------------
TOTAL SCF ENERGY
----------------

Total Energy       :         -943.83768809 Eh          -25683.12920 eV

Components:
Nuclear Repulsion  :            0.00000000 Eh               0.00000 eV
Electronic Energy  :         -943.83768809 Eh          -25683.12920 eV
One Electron Energy:        -1297.79530207 Eh          -35314.80554 eV
Two Electron Energy:          353.95761397 Eh            9631.67634 eV

Virial components:
Potential Energy   :        -1886.43502632 Eh          -51332.50676 eV
Kinetic Energy     :          942.59733822 Eh           25649.37756 eV
Virial Ratio       :            2.00131589


DFT components:
N(Alpha)           :       12.999998409762 electrons
N(Beta)            :        9.999994557840 electrons
N(Total)           :       22.999992967602 electrons
E(X)               :      -34.532127208903 Eh       
E(C)               :       -1.101935814253 Eh       
NL Energy, E(C,NL) :        0.097652693694 Eh       
E(XC)              :      -35.536410329463 Eh       
DFET-embed. en.    :        0.000000000000 Eh       

---------------
SCF CONVERGENCE
---------------

  Last Energy change         ...    5.4627e-07  Tolerance :   1.0000e-06
  Last MAX-Density change    ...    1.8881e-03  Tolerance :   1.0000e-05
  Last RMS-Density change    ...    2.5237e-05  Tolerance :   1.0000e-06
  Last DIIS Error            ...    4.4351e-03  Tolerance :   1.0000e-06

             **** THE GBW FILE WAS UPDATED (63_V.gbw) ****
             **** DENSITY FILE WAS UPDATED (63_V.scfp) ****
             **** ENERGY FILE WAS UPDATED (63_V.en.tmp) ****
----------------------
UHF SPIN CONTAMINATION
----------------------

Warning: in a DFT calculation there is little theoretical justification to 
         calculate <S**2> as in Hartree-Fock theory. We will do it anyways
         but you should keep in mind that the values have only limited relevance

Expectation value of <S**2>     :     4.735679
Ideal value S*(S+1) for S=1.5   :     3.750000
Deviation                       :     0.985679

             **** THE GBW FILE WAS UPDATED (63_V.gbw) ****
             **** DENSITY FILE WAS UPDATED (63_V.scfp) ****
----------------
ORBITAL ENERGIES
----------------
                 SPIN UP ORBITALS
  NO   OCC          E(Eh)            E(eV) 
   0   1.0000    -197.194915     -5365.9465 
   1   1.0000     -22.332836      -607.7073 
   2   1.0000     -18.760591      -510.5016 
   3   1.0000     -18.755155      -510.3537 
   4   1.0000     -18.749640      -510.2037 
   5   1.0000      -2.693008       -73.2805 
   6   1.0000      -1.720615       -46.8203 
   7   1.0000      -1.717150       -46.7260 
   8   1.0000      -1.714045       -46.6415 
   9   1.0000      -0.271149        -7.3783 
  10   1.0000      -0.259745        -7.0680 
  11   1.0000      -0.243421        -6.6238 
  12   1.0000      -0.241081        -6.5602 
  13   0.0000      -0.042877        -1.1667 
  14   0.0000       0.000793         0.0216 
  15   0.0000       0.002310         0.0629 
  16   0.0000       0.002405         0.0654 
  17   0.0000       0.016212         0.4411 
  18   0.0000       0.040556         1.1036 
  19   0.0000       0.047927         1.3042 
  20   0.0000       0.048267         1.3134 
  21   0.0000       0.048746         1.3264 
  22   0.0000       0.048764         1.3269 
  23   0.0000       0.049597         1.3496 
  24   0.0000       0.052288         1.4228 
  25   0.0000       0.052539         1.4297 
  26   0.0000       0.080936         2.2024 
  27   0.0000       0.131166         3.5692 
  28   0.0000       0.194063         5.2807 
  29   0.0000       0.200205         5.4479 
  30   0.0000       0.201411         5.4807 
  31   0.0000       0.226333         6.1588 
  32   0.0000       0.227003         6.1771 
  33   0.0000       0.228753         6.2247 
  34   0.0000       0.228815         6.2264 
  35   0.0000       0.239309         6.5119 
  36   0.0000       0.448100        12.1934 
  37   0.0000       0.451619        12.2892 
  38   0.0000       0.454122        12.3573 
  39   0.0000       0.454895        12.3783 
  40   0.0000       0.454906        12.3786 
  41   0.0000       0.455390        12.3918 
  42   0.0000       0.455604        12.3976 
  43   0.0000       0.479365        13.0442 
  44   0.0000       0.670040        18.2327 
  45   0.0000       0.676234        18.4013 
  46   0.0000       0.679024        18.4772 
  47   0.0000       0.808100        21.9895 
  48   0.0000       0.812825        22.1181 
  49   0.0000       0.818531        22.2734 
  50   0.0000       0.821386        22.3510 
  51   0.0000       0.822707        22.3870 
  52   0.0000       1.468183        39.9513 
  53   0.0000       1.468960        39.9724 
  54   0.0000       1.476228        40.1702 
  55   0.0000       1.478524        40.2327 
  56   0.0000       1.479894        40.2700 
  57   0.0000       1.483668        40.3727 
  58   0.0000       1.483806        40.3764 
  59   0.0000       1.711546        46.5735 
  60   0.0000       1.723411        46.8964 
  61   0.0000       1.723955        46.9112 
  62   0.0000       1.725424        46.9512 
  63   0.0000       1.725818        46.9619 
  64   0.0000       1.726760        46.9875 
  65   0.0000       1.726902        46.9914 
  66   0.0000       1.734075        47.1866 
  67   0.0000       1.734096        47.1871 
  68   0.0000       2.297834        62.5272 
  69   0.0000       2.303880        62.6918 
  70   0.0000       2.304574        62.7106 
  71   0.0000       2.307388        62.7872 
  72   0.0000       2.925781        79.6145 
  73   0.0000       2.936047        79.8939 
  74   0.0000       2.950955        80.2996 
  75   0.0000       2.953049        80.3566 
  76   0.0000       2.967909        80.7609 
  77   0.0000       5.009000       136.3018 
  78   0.0000       5.009252       136.3087 
  79   0.0000       5.009723       136.3215 
  80   0.0000       5.017195       136.5248 
  81   0.0000       5.022805       136.6775 
  82   0.0000       5.029768       136.8670 
  83   0.0000       5.029919       136.8711 
  84   0.0000       5.300672       144.2386 
  85   0.0000       5.302593       144.2909 
  86   0.0000       5.302899       144.2992 
  87   0.0000       5.305363       144.3663 
  88   0.0000       5.306514       144.3976 
  89   0.0000       5.309814       144.4874 
  90   0.0000       5.314113       144.6044 
  91   0.0000       5.321238       144.7982 
  92   0.0000       5.321304       144.8000 

                 SPIN DOWN ORBITALS
  NO   OCC          E(Eh)            E(eV) 
   0   1.0000    -197.195733     -5365.9687 
   1   1.0000     -22.283934      -606.3767 
   2   1.0000     -18.727684      -509.6062 
   3   1.0000     -18.714849      -509.2569 
   4   1.0000     -18.704509      -508.9756 
   5   1.0000      -2.567639       -69.8690 
   6   1.0000      -1.600023       -43.5388 
   7   1.0000      -1.570293       -42.7298 
   8   1.0000      -1.548643       -42.1407 
   9   1.0000      -0.202901        -5.5212 
  10   0.0000       0.028532         0.7764 
  11   0.0000       0.029541         0.8039 
  12   0.0000       0.029709         0.8084 
  13   0.0000       0.036577         0.9953 
  14   0.0000       0.072406         1.9703 
  15   0.0000       0.072523         1.9735 
  16   0.0000       0.073951         2.0123 
  17   0.0000       0.077400         2.1062 
  18   0.0000       0.078112         2.1255 
  19   0.0000       0.078121         2.1258 
  20   0.0000       0.078870         2.1462 
  21   0.0000       0.080153         2.1811 
  22   0.0000       0.132891         3.6161 
  23   0.0000       0.140141         3.8134 
  24   0.0000       0.145441         3.9577 
  25   0.0000       0.152759         4.1568 
  26   0.0000       0.153372         4.1735 
  27   0.0000       0.153824         4.1858 
  28   0.0000       0.211588         5.7576 
  29   0.0000       0.212141         5.7726 
  30   0.0000       0.213452         5.8083 
  31   0.0000       0.287599         7.8260 
  32   0.0000       0.291011         7.9188 
  33   0.0000       0.296313         8.0631 
  34   0.0000       0.301241         8.1972 
  35   0.0000       0.302094         8.2204 
  36   0.0000       0.465356        12.6630 
  37   0.0000       0.465786        12.6747 
  38   0.0000       0.465840        12.6762 
  39   0.0000       0.467534        12.7222 
  40   0.0000       0.468307        12.7433 
  41   0.0000       0.468403        12.7459 
  42   0.0000       0.469974        12.7886 
  43   0.0000       0.512094        13.9348 
  44   0.0000       0.703664        19.1477 
  45   0.0000       0.704530        19.1712 
  46   0.0000       0.711918        19.3723 
  47   0.0000       0.851464        23.1695 
  48   0.0000       0.858778        23.3685 
  49   0.0000       0.863915        23.5083 
  50   0.0000       0.870835        23.6966 
  51   0.0000       0.871613        23.7178 
  52   0.0000       1.517090        41.2821 
  53   0.0000       1.518778        41.3280 
  54   0.0000       1.522255        41.4227 
  55   0.0000       1.527063        41.5535 
  56   0.0000       1.528438        41.5909 
  57   0.0000       1.531489        41.6739 
  58   0.0000       1.531677        41.6790 
  59   0.0000       1.723262        46.8924 
  60   0.0000       1.726799        46.9886 
  61   0.0000       1.727943        47.0197 
  62   0.0000       1.728220        47.0272 
  63   0.0000       1.731343        47.1122 
  64   0.0000       1.731432        47.1147 
  65   0.0000       1.732165        47.1346 
  66   0.0000       1.732802        47.1519 
  67   0.0000       1.733342        47.1666 
  68   0.0000       2.361300        64.2542 
  69   0.0000       2.381474        64.8032 
  70   0.0000       2.390248        65.0420 
  71   0.0000       2.394752        65.1645 
  72   0.0000       3.021087        82.2080 
  73   0.0000       3.042966        82.8033 
  74   0.0000       3.050303        83.0030 
  75   0.0000       3.060840        83.2897 
  76   0.0000       3.061776        83.3152 
  77   0.0000       5.113976       139.1584 
  78   0.0000       5.119522       139.3093 
  79   0.0000       5.131923       139.6467 
  80   0.0000       5.151073       140.1678 
  81   0.0000       5.152694       140.2119 
  82   0.0000       5.163135       140.4961 
  83   0.0000       5.163323       140.5012 
  84   0.0000       5.375845       146.2842 
  85   0.0000       5.378757       146.3634 
  86   0.0000       5.386568       146.5760 
  87   0.0000       5.399161       146.9186 
  88   0.0000       5.399808       146.9363 
  89   0.0000       5.417119       147.4073 
  90   0.0000       5.417200       147.4095 
  91   0.0000       5.418307       147.4396 
  92   0.0000       5.418340       147.4405 

                    ********************************
                    * MULLIKEN POPULATION ANALYSIS *
                    ********************************

--------------------------------------------
MULLIKEN ATOMIC CHARGES AND SPIN POPULATIONS
--------------------------------------------
   0 V :   -0.000000    3.000000
Sum of atomic charges         :   -0.0000000
Sum of atomic spin populations:    3.0000000

-----------------------------------------------------
MULLIKEN REDUCED ORBITAL CHARGES AND SPIN POPULATIONS
-----------------------------------------------------
CHARGE
  0 V s       :     7.013582  s :     7.013582
      pz      :     4.000002  p :    11.999940
      px      :     3.999946
      py      :     3.999992
      dz2     :     0.898713  d :     3.986260
      dxz     :     0.999984
      dyz     :     0.999948
      dx2y2   :     0.999887
      dxy     :     0.087728
      f0      :     0.000027  f :     0.000170
      f+1     :     0.000021
      f-1     :     0.000021
      f+2     :     0.000000
      f-2     :     0.000012
      f+3     :     0.000045
      f-3     :     0.000045
      g0      :     0.000008  g :     0.000048
      g+1     :     0.000004
      g-1     :     0.000004
      g+2     :     0.000002
      g-2     :     0.000004
      g+3     :     0.000006
      g-3     :     0.000006
      g+4     :     0.000012
      g-4     :     0.000001

SPIN
  0 V s       :    -0.985828  s :    -0.985828
      pz      :     0.000045  p :     0.000075
      px      :     0.000002
      py      :     0.000027
      dz2     :     0.898359  d :     3.985708
      dxz     :     0.999984
      dyz     :     0.999948
      dx2y2   :     0.999885
      dxy     :     0.087533
      f0      :    -0.000008  f :     0.000001
      f+1     :    -0.000016
      f-1     :    -0.000016
      f+2     :     0.000000
      f-2     :     0.000004
      f+3     :     0.000019
      f-3     :     0.000018
      g0      :     0.000008  g :     0.000043
      g+1     :     0.000004
      g-1     :     0.000004
      g+2     :     0.000002
      g-2     :     0.000003
      g+3     :     0.000006
      g-3     :     0.000006
      g+4     :     0.000009
      g-4     :     0.000001


                     *******************************
                     * LOEWDIN POPULATION ANALYSIS *
                     *******************************

-------------------------------------------
LOEWDIN ATOMIC CHARGES AND SPIN POPULATIONS
-------------------------------------------
   0 V :   -0.000000    3.000000

----------------------------------------------------
LOEWDIN REDUCED ORBITAL CHARGES AND SPIN POPULATIONS
----------------------------------------------------
CHARGE
  0 V s       :     7.013582  s :     7.013582
      pz      :     4.000002  p :    11.999940
      px      :     3.999946
      py      :     3.999992
      dz2     :     0.898713  d :     3.986260
      dxz     :     0.999984
      dyz     :     0.999948
      dx2y2   :     0.999887
      dxy     :     0.087728
      f0      :     0.000027  f :     0.000170
      f+1     :     0.000021
      f-1     :     0.000021
      f+2     :     0.000000
      f-2     :     0.000012
      f+3     :     0.000045
      f-3     :     0.000045
      g0      :     0.000008  g :     0.000048
      g+1     :     0.000004
      g-1     :     0.000004
      g+2     :     0.000002
      g-2     :     0.000004
      g+3     :     0.000006
      g-3     :     0.000006
      g+4     :     0.000012
      g-4     :     0.000001

SPIN
  0 V s       :    -0.985828  s :    -0.985828
      pz      :     0.000045  p :     0.000075
      px      :     0.000002
      py      :     0.000027
      dz2     :     0.898359  d :     3.985708
      dxz     :     0.999984
      dyz     :     0.999948
      dx2y2   :     0.999885
      dxy     :     0.087533
      f0      :    -0.000008  f :     0.000001
      f+1     :    -0.000016
      f-1     :    -0.000016
      f+2     :     0.000000
      f-2     :     0.000004
      f+3     :     0.000019
      f-3     :     0.000018
      g0      :     0.000008  g :     0.000043
      g+1     :     0.000004
      g-1     :     0.000004
      g+2     :     0.000002
      g-2     :     0.000003
      g+3     :     0.000006
      g-3     :     0.000006
      g+4     :     0.000009
      g-4     :     0.000001


                      *****************************
                      * MAYER POPULATION ANALYSIS *
                      *****************************

  NA   - Mulliken gross atomic population
  ZA   - Total nuclear charge
  QA   - Mulliken gross atomic charge
  VA   - Mayer's total valence
  BVA  - Mayer's bonded valence
  FA   - Mayer's free valence

  ATOM       NA         ZA         QA         VA         BVA        FA
  0 V     23.0000    23.0000    -0.0000     4.9714     0.0000     4.9714

  Mayer bond orders larger than 0.100000


-------
TIMINGS
-------

Total SCF time: 0 days 0 hours 5 min 30 sec 

Total time                  ....     330.852 sec
Sum of individual times     ....     330.486 sec  ( 99.9%)

Fock matrix formation       ....     330.131 sec  ( 99.8%)
  XC integration            ....       0.587 sec  (  0.2% of F)
    Basis function eval.    ....       0.092 sec  ( 15.6% of XC)
    Density eval.           ....       0.072 sec  ( 12.2% of XC)
    XC-Functional eval.     ....       0.025 sec  (  4.3% of XC)
    XC-Potential eval.      ....       0.191 sec  ( 32.6% of XC)
Diagonalization             ....       0.075 sec  (  0.0%)
Density matrix formation    ....       0.013 sec  (  0.0%)
Population analysis         ....       0.004 sec  (  0.0%)
Initial guess               ....       0.090 sec  (  0.0%)
Orbital Transformation      ....       0.000 sec  (  0.0%)
Orbital Orthonormalization  ....       0.000 sec  (  0.0%)
DIIS solution               ....       0.032 sec  (  0.0%)
Grid generation             ....       0.140 sec  (  0.0%)

-------------------------   --------------------
FINAL SINGLE POINT ENERGY      -943.837688094684
-------------------------   --------------------


                            ***************************************
                            *     ORCA property calculations      *
                            ***************************************

                                    ---------------------
                                    Active property flags
                                    ---------------------
   (+) Dipole Moment


------------------------------------------------------------------------------
                       ORCA ELECTRIC PROPERTIES CALCULATION
------------------------------------------------------------------------------

Dipole Moment Calculation                       ... on
Quadrupole Moment Calculation                   ... off
Polarizability Calculation                      ... off
GBWName                                         ... 63_V.gbw
Electron density file                           ... 63_V.scfp
The origin for moment calculation is the CENTER OF MASS  = ( 0.000000,  0.000000  0.000000)

-------------
DIPOLE MOMENT
-------------
                                X             Y             Z
Electronic contribution:      0.00143       0.00411       0.00011
Nuclear contribution   :      0.00000       0.00000       0.00000
                        -----------------------------------------
Total Dipole Moment    :      0.00143       0.00411       0.00011
                        -----------------------------------------
Magnitude (a.u.)       :      0.00436
Magnitude (Debye)      :      0.01107



--------------------
Rotational spectrum 
--------------------
 
Rotational constants in cm-1:     0.000000     0.000000     0.000000 
Rotational constants in MHz :     0.000000     0.000000     0.000000 

 Dipole components along the rotational axes: 
x,y,z [a.u.] :     0.001434     0.004112     0.000114 
x,y,z [Debye]:     0.003645     0.010452     0.000289 

 

Timings for individual modules:

Sum of individual times         ...      334.384 sec (=   5.573 min)
GTO integral calculation        ...        2.918 sec (=   0.049 min)   0.9 %
SCF iterations                  ...      331.466 sec (=   5.524 min)  99.1 %
                             ****ORCA TERMINATED NORMALLY****
TOTAL RUN TIME: 0 days 0 hours 5 minutes 34 seconds 994 msec
