
                                 *****************
                                 * O   R   C   A *
                                 *****************

           --- An Ab Initio, DFT and Semiempirical electronic structure package ---

                  #######################################################
                  #                        -***-                        #
                  #          Department of theory and spectroscopy      #
                  #               Directorship: Frank Neese             #
                  #        Max Planck Institute fuer Kohlenforschung    #
                  #                Kaiser Wilhelm Platz 1               #
                  #                 D-45470 Muelheim/Ruhr               #
                  #                      Germany                        #
                  #                                                     #
                  #                  All rights reserved                #
                  #                        -***-                        #
                  #######################################################


                         Program Version 4.2.0 -  RELEASE  -


 With contributions from (in alphabetic order):
   Daniel Aravena         : Magnetic Suceptibility
   Michael Atanasov       : Ab Initio Ligand Field Theory (pilot matlab implementation)
   Alexander A. Auer      : GIAO ZORA, VPT2
   Ute Becker             : Parallelization
   Giovanni Bistoni       : ED, misc. LED, open-shell LED, HFLED
   Martin Brehm           : Molecular dynamics
   Dmytro Bykov           : SCF Hessian
   Vijay G. Chilkuri      : MRCI spin determinant printing, contributions to CSF-ICE
   Dipayan Datta          : RHF DLPNO-CCSD density
   Achintya Kumar Dutta   : EOM-CC, STEOM-CC
   Dmitry Ganyushin       : Spin-Orbit,Spin-Spin,Magnetic field MRCI
   Miquel Garcia          : C-PCM Hessian, Gaussian charge scheme
   Yang Guo               : DLPNO-NEVPT2, CIM, IAO-localization
   Andreas Hansen         : Spin unrestricted coupled pair/coupled cluster methods
   Benjamin Helmich-Paris : CASSCF linear response (MC-RPA)
   Lee Huntington         : MR-EOM, pCC
   Robert Izsak           : Overlap fitted RIJCOSX, COSX-SCS-MP3, EOM
   Christian Kollmar      : KDIIS, OOCD, Brueckner-CCSD(T), CCSD density
   Simone Kossmann        : Meta GGA functionals, TD-DFT gradient, OOMP2, MP2 Hessian
   Martin Krupicka        : AUTO-CI
   Lucas Lang             : DCDCAS
   Dagmar Lenk            : GEPOL surface, SMD
   Dimitrios Liakos       : Extrapolation schemes; Compound Job, initial MDCI parallelization
   Dimitrios Manganas     : Further ROCIS development; embedding schemes
   Dimitrios Pantazis     : SARC Basis sets
   Taras Petrenko         : DFT Hessian,TD-DFT gradient, ASA, ECA, R-Raman, ABS, FL, XAS/XES, NRVS
   Peter Pinski           : DLPNO-MP2, DLPNO-MP2 Gradient
   Christoph Reimann      : Effective Core Potentials
   Marius Retegan         : Local ZFS, SOC
   Christoph Riplinger    : Optimizer, TS searches, QM/MM, DLPNO-CCSD(T), (RO)-DLPNO pert. Triples
   Tobias Risthaus        : Range-separated hybrids, TD-DFT gradient, RPA, STAB
   Michael Roemelt        : Original ROCIS implementation
   Masaaki Saitow         : Open-shell DLPNO-CCSD energy and density
   Barbara Sandhoefer     : DKH picture change effects
   Avijit Sen             : IP-ROCIS
   Kantharuban Sivalingam : CASSCF convergence, NEVPT2, FIC-MRCI
   Bernardo de Souza      : ESD, SOC TD-DFT
   Georgi Stoychev        : AutoAux, RI-MP2 NMR
   Willem Van den Heuvel  : Paramagnetic NMR
   Boris Wezisla          : Elementary symmetry handling
   Frank Wennmohs         : Technical directorship


 We gratefully acknowledge several colleagues who have allowed us to
 interface, adapt or use parts of their codes:
   Stefan Grimme, W. Hujo, H. Kruse,             : VdW corrections, initial TS optimization,
                  C. Bannwarth                     DFT functionals, gCP, sTDA/sTD-DF
   Ed Valeev, F. Pavosevic, A. Kumar             : LibInt (2-el integral package), F12 methods
   Garnet Chan, S. Sharma, J. Yang, R. Olivares  : DMRG
   Ulf Ekstrom                                   : XCFun DFT Library
   Mihaly Kallay                                 : mrcc  (arbitrary order and MRCC methods)
   Andreas Klamt, Michael Diedenhofen            : otool_cosmo (COSMO solvation model)
   Jiri Pittner, Ondrej Demel                    : Mk-CCSD
   Frank Weinhold                                : gennbo (NPA and NBO analysis)
   Christopher J. Cramer and Donald G. Truhlar   : smd solvation model
   Lars Goerigk                                  : TD-DFT with DH, B97 family of functionals
   V. Asgeirsson, H. Jonsson                     : NEB implementation
   FAccTs GmbH                                   : IRC, NEB, NEB-TS, Multilevel, MM, QM/MM, CI optimization
   S Lehtola, MJT Oliveira, MAL Marques          : LibXC Library


 Your calculation uses the libint2 library for the computation of 2-el integrals
 For citations please refer to: http://libint.valeyev.net

 Your ORCA version has been built with support for libXC version: 4.2.3
 For citations please refer to: https://tddft.org/programs/libxc/

 This ORCA versions uses:
   CBLAS   interface :  Fast vector & matrix operations
   LAPACKE interface :  Fast linear algebra routines
   SCALAPACK package :  Parallel linear algebra routines


Your calculation utilizes the DFT-NL dispersion correction.
Cite in your paper:
Vydrov, O. A.; Van Voorhis, T. J. Chem. Phys. 2010, 133, 244103
Hujo, W.; Grimme, S. J. Chem. Theory Comput. 2011, 7, 3866 
   

----- Orbital basis set information -----
Your calculation utilizes the basis: aug-cc-pVTZ 
    H, B-Ne : Obtained from the ccRepo (grant-hill.group.shef.ac.uk/ccrepo) Feb. 2017
              R. A. Kendall, T. H. Dunning, Jr., R. J. Harrison, J. Chem. Phys. 96, 6796 (1992)
         He : Obtained from the ccRepo (grant-hill.group.shef.ac.uk/ccrepo) Feb. 2017
              D. E. Woon, T. H. Dunning, Jr., J. Chem. Phys. 100, 2975 (1994)
  Li-Be, Na : Obtained from the ccRepo (grant-hill.group.shef.ac.uk/ccrepo) Feb. 2017
              B. P. Prascher, D. E. Woon, K. A. Peterson, T. H. Dunning, Jr., A. K. Wilson, Theor. Chem. Acc. 128, 69 (2011)
         Mg : Obtained from the Peterson Research Group Website (tyr0.chem.wsu.edu/~kipeters) Feb. 2017
              B. P. Prascher, D. E. Woon, K. A. Peterson, T. H. Dunning, Jr., A. K. Wilson, Theor. Chem. Acc. 128, 69 (2011)
      Al-Ar : Obtained from the ccRepo (grant-hill.group.shef.ac.uk/ccrepo) Feb. 2017
              D. E. Woon, T. H. Dunning, Jr., J. Chem. Phys. 98, 1358 (1993)
      Sc-Zn : Obtained from the ccRepo (grant-hill.group.shef.ac.uk/ccrepo) Feb. 2017
              N. B. Balabanov, K. A. Peterson, J. Chem. Phys. 123, 064107 (2005)
              N. B. Balabanov, K. A. Peterson, J. Chem. Phys. 125, 074110 (2006)
      Ga-Kr : Obtained from the ccRepo (grant-hill.group.shef.ac.uk/ccrepo) Feb. 2017
              A. K. Wilson, D. E. Woon, K. A. Peterson, T. H. Dunning, Jr., J. Chem. Phys. 110, 7667 (1999)
     Ag, Au : Obtained from the Peterson Research Group Website (tyr0.chem.wsu.edu/~kipeters) Feb. 2017
              K. A. Peterson, C. Puzzarini, Theor. Chem. Acc. 114, 283 (2005)

----- AuxJK basis set information -----
Your calculation utilizes the auxiliary basis: def2/JK
   H-Ba, Hf-Rn: F. Weigend, J. Comput. Chem. 29, 167 (2008).

================================================================================
                                        WARNINGS
                       Please study these warnings very carefully!
================================================================================


WARNING: your system is open-shell and RHF/RKS was chosen
  ===> : WILL SWITCH to UHF/UKS


INFO   : the flag for use of LIBINT has been found!

================================================================================
                                       INPUT FILE
================================================================================
NAME = 64_Cr.in
|  1> #
|  2> # 64_Cr wb97m-v/aug-cc-pvtz
|  3> #
|  4> ! wb97m-v aug-cc-pvtz def2/jk grid4 nofinalgrid slowconv
|  5> 
|  6> *xyz 0 7
|  7> Cr 0.0 0.0 0.0
|  8> *
|  9> 
| 10> %scf
| 11> maxiter 300
| 12> diismaxeq 15
| 13> directresetfreq 1
| 14> end
| 15> 
| 16> %pal
| 17> nprocs 24
| 18> end
| 19> 
| 20> 
| 21>                          ****END OF INPUT****
================================================================================

                       ****************************
                       * Single Point Calculation *
                       ****************************

---------------------------------
CARTESIAN COORDINATES (ANGSTROEM)
---------------------------------
  Cr     0.000000    0.000000    0.000000

----------------------------
CARTESIAN COORDINATES (A.U.)
----------------------------
  NO LB      ZA    FRAG     MASS         X           Y           Z
   0 Cr   24.0000    0    52.000    0.000000    0.000000    0.000000

--------------------------------
INTERNAL COORDINATES (ANGSTROEM)
--------------------------------
 Cr     0   0   0     0.000000000000     0.00000000     0.00000000

---------------------------
INTERNAL COORDINATES (A.U.)
---------------------------
 Cr     0   0   0     0.000000000000     0.00000000     0.00000000

---------------------
BASIS SET INFORMATION
---------------------
There are 1 groups of distinct atoms

 Group   1 Type Cr  : 116s77p23d3f2g contracted to 8s7p5d3f2g pattern {19191919191911/151515151511/77711/111/11}

Atom   0Cr   basis set group =>   1
----------------------------------
AUXILIARY/JK BASIS SET INFORMATION
----------------------------------
There are 1 groups of distinct atoms

 Group   1 Type Cr  : 19s14p12d10f7g3h1i contracted to 16s13p11d9f5g3h1i pattern {4111111111111111/2111111111111/21111111111/211111111/31111/111/1}

Atom   0Cr   basis set group =>   1


           ************************************************************
           *        Program running with 24 parallel MPI-processes    *
           *              working on a common directory               *
           ************************************************************
------------------------------------------------------------------------------
                           ORCA GTO INTEGRAL CALCULATION
------------------------------------------------------------------------------

                         BASIS SET STATISTICS AND STARTUP INFO

 # of primitive gaussian shells          ...  221
 # of primitive gaussian functions       ...  501
 # of contracted shells                  ...   25
 # of contracted basis functions         ...   93
 Highest angular momentum                ...    4
 Maximum contraction depth               ...   19
 Integral package used                   ... LIBINT
 Integral threshhold            Thresh   ...  1.000e-10
 Primitive cut-off              TCut     ...  1.000e-11


------------------------------ INTEGRAL EVALUATION ----------------------------


 * One electron integrals 
 Pre-screening matrix                    ... done
 Shell pair data                         ... done (   0.001 sec)



           ************************************************************
           *        Program running with 24 parallel MPI-processes    *
           *              working on a common directory               *
           ************************************************************
-------------------------------------------------------------------------------
                                 ORCA SCF
-------------------------------------------------------------------------------

------------
SCF SETTINGS
------------
Hamiltonian:
 Density Functional     Method          .... DFT(GTOs)
 Exchange Functional    Exchange        .... WB97M-V
 Correlation Functional Correlation     .... WB97M-V
 Gradients option       PostSCFGGA      .... off
 Hybrid DFT is turned on
   Fraction HF Exchange ScalHFX         ....  0.150000
   Scaling of DF-GGA-X  ScalDFX         ....  0.000000
   Scaling of DF-GGA-C  ScalDFC         ....  1.000000
   Scaling of DF-LDA-C  ScalLDAC        ....  1.000000
   Perturbative correction              ....  0.000000
   Density functional embedding theory  .... OFF
 Long-range corrected/Screened/Range-Separated Hybrid DFT is turned on
   Amount of maximum screened exact exchange              ....  0.850000
   Range separation parameter mu (erf(mu*r12)/r12)        ....  0.300000
   NL short-range parameter             ....  6.000000
   NL long-range parameter              ....  0.010000


General Settings:
 Integral files         IntName         .... 64_Cr
 Hartree-Fock type      HFTyp           .... UHF
 Total Charge           Charge          ....    0
 Multiplicity           Mult            ....    7
 Number of Electrons    NEL             ....   24
 Basis Dimension        Dim             ....   93
 Nuclear Repulsion      ENuc            ....      0.0000000000 Eh

Convergence Acceleration:
 DIIS                   CNVDIIS         .... on
   Start iteration      DIISMaxIt       ....     0
   Startup error        DIISStart       ....  0.200000
   # of expansion vecs  DIISMaxEq       ....    15
   Bias factor          DIISBfac        ....   1.050
   Max. coefficient     DIISMaxC        ....  10.000
 Newton-Raphson         CNVNR           .... off
 SOSCF                  CNVSOSCF        .... off
 Level Shifting         CNVShift        .... on
   Level shift para.    LevelShift      ....    0.2500
   Turn off err/grad.   ShiftErr        ....    0.0000
 Zerner damping         CNVZerner       .... off
 Static damping         CNVDamp         .... on
   Fraction old density DampFac         ....    0.8500
   Max. Damping (<1)    DampMax         ....    0.9800
   Min. Damping (>=0)   DampMin         ....    0.0000
   Turn off err/grad.   DampErr         ....    0.0300
 Fernandez-Rico         CNVRico         .... off

SCF Procedure:
 Maximum # iterations   MaxIter         ....   300
 SCF integral mode      SCFMode         .... Direct
   Integral package                     .... LIBINT
 Reset frequency        DirectResetFreq ....     1
 Integral Threshold     Thresh          ....  1.000e-10 Eh
 Primitive CutOff       TCut            ....  1.000e-11 Eh

Convergence Tolerance:
 Convergence Check Mode ConvCheckMode   .... Total+1el-Energy
 Convergence forced     ConvForced      .... 0
 Energy Change          TolE            ....  1.000e-06 Eh
 1-El. energy change                    ....  1.000e-03 Eh
 DIIS Error             TolErr          ....  1.000e-06


Diagonalization of the overlap matrix:
Smallest eigenvalue                        ... 1.748e-04
Time for diagonalization                   ...    0.019 sec
Threshold for overlap eigenvalues          ... 1.000e-08
Number of eigenvalues below threshold      ... 0
Time for construction of square roots      ...    0.001 sec
Total time needed                          ...    0.020 sec

-------------------
DFT GRID GENERATION
-------------------

General Integration Accuracy     IntAcc      ...  4.670
Radial Grid Type                 RadialGrid  ... Gauss-Chebyshev
Angular Grid (max. acc.)         AngularGrid ... Lebedev-302
Angular grid pruning method      GridPruning ... 3 (G Style)
Weight generation scheme         WeightScheme... Becke
Basis function cutoff            BFCut       ...    1.0000e-10
Integration weight cutoff        WCut        ...    1.0000e-14
Grids for H and He will be reduced by one unit

# of grid points (after initial pruning)     ...   9664 (   0.0 sec)
# of grid points (after weights+screening)   ...   9664 (   0.0 sec)
Grid point division into batches done        ...    0.1 sec
Reduced shell lists constructed in    0.1 sec

Total number of grid points                  ...     9664
Total number of batches                      ...      152
Average number of points per batch           ...       63
Average number of grid points per atom       ...     9664
Average number of shells per batch           ...    10.62 (42.50%)
Average number of basis functions per batch  ...    26.62 (28.63%)
Average number of large shells per batch     ...     4.62 (43.53%)
Average number of large basis fcns per batch ...    12.38 (46.48%)
Maximum spatial batch extension              ...  27.95, 22.27, 22.27 au
Average spatial batch extension              ...   0.96,  0.88,  0.86 au

Time for grid setup =    0.124 sec

------------------------------
INITIAL GUESS: MODEL POTENTIAL
------------------------------
Loading Hartree-Fock densities                     ... done
Calculating cut-offs                               ... done
Setting up the integral package                    ... done
Initializing the effective Hamiltonian             ... done
Starting the Coulomb interaction                   ... done (   0.0 sec)
Reading the grid                                   ... done
Mapping shells                                     ... done
Starting the XC term evaluation                    ... done (   0.0 sec)
  promolecular density results
     # of electrons  =     24.000004859
     EX              =    -47.171868566
     EC              =     -1.006455159
     EX+EC           =    -48.178323726
Transforming the Hamiltonian                       ... done (   0.0 sec)
Diagonalizing the Hamiltonian                      ... done (   0.0 sec)
Back transforming the eigenvectors                 ... done (   0.0 sec)
Now organizing SCF variables                       ... done
                      ------------------
                      INITIAL GUESS DONE (   0.2 sec)
                      ------------------
--------------
SCF ITERATIONS
--------------
ITER       Energy         Delta-E        Max-DP      RMS-DP      [F,P]     Damp
  0  -1044.4300274738   0.00000000000035.26729286  0.75668726  0.1218497 0.8500
  1  -1043.1291250206   1.300902453183 5.28789226  0.11347914  0.0888426 0.8500
                               ***Turning on DIIS***
  2  -1043.3473585627  -0.218233542123 4.50355701  0.09663596  0.0497788 0.8500
  3  -1043.5248730010  -0.177514438297 3.83360052  0.08225227  0.0392750 0.8500
  4  -1043.6712456395  -0.146372638514 3.25901816  0.06992344  0.0353093 0.8500
  5  -1043.7930450579  -0.121799418321 2.77035922  0.05943868  0.0464894 0.8500
  6  -1043.8948587951  -0.101813737280 2.35500838  0.05052685  0.0549633 0.8500
  7  -1043.9802145270  -0.085355731903 2.00200243  0.04295264  0.0613692 0.8500
  8  -1044.0519162379  -0.071701710833 1.70182764  0.03651219  0.0658257 0.8500
  9  -1044.1122028089  -0.060286570977 1.44572292  0.03101917  0.0678421 0.8500
 10  -1044.1628589885  -0.050656179659 1.22701039  0.02633021  0.0795627 0.8500
 11  -1044.2055238406  -0.042664852080 1.04187656  0.02235936  0.0937094 0.8500
 12  -1044.2414839498  -0.035960109231 0.88689260  0.01903086  0.0789384 0.8500
 13  -1044.2712395832  -0.029755633426 0.74875478  0.01607576  0.1090309 0.8500
 14  -1044.2965969403  -0.025357357096 0.63366950  0.01360891  0.1104415 0.8500
 15  -1044.3181608796  -0.021563939241 0.53491976  0.01149257  0.1056638 0.8500
 16  -1044.3365531685  -0.018392288915 0.44800535  0.00962950  0.1018499 0.8500
 17  -1044.3523155428  -0.015762374285 0.38368894  0.00822772  0.1015089 0.8500
 18  -1044.3649806498  -0.012665107001 0.33465546  0.00717221  0.1015453 0.8500
 19  -1044.3751021317  -0.010121481865 0.29033193  0.00622001  0.0961764 0.8500
 20  -1044.3832110525  -0.008108920837 0.24906702  0.00534075  0.0935164 0.8500
 21  -1044.3898913325  -0.006680279984 0.21319947  0.00457711  0.0948031 0.8500
 22  -1044.3956891300  -0.005797797489 0.18203329  0.00391387  0.0963424 0.8500
 23  -1044.4009424014  -0.005253271437 0.15484488  0.00333076  0.0970054 0.8500
 24  -1044.4058152664  -0.004872864983 0.13075352  0.00280447  0.0964457 0.8500
 25  -1044.4104483626  -0.004633096236 0.10845121  0.00232421  0.0943333 0.8500
 26  -1044.4153481893  -0.004899826704 0.07407948  0.00173359  0.0892674 0.8500
 27  -1044.4223086515  -0.006960462214 1.23935898  0.02225741  0.0762931 0.8500
 28  -1043.5083218425   0.913986809041 0.26079522  0.00449038  0.0513365 0.8500
 29  -1043.6569426761  -0.148620833614 0.22247829  0.00382345  0.0367169 0.8500
 30  -1043.7821897779  -0.125247101770 1.26541261  0.02171852  0.0220490 0.0000
 31  -1044.4392419778  -0.657052199917 0.00301460  0.00005284  0.1552179 0.8500
 32  -1044.4392307944   0.000011183348 0.00664157  0.00010273  0.1636448 0.8500
 33  -1044.4392102166   0.00002057786612.35365576  0.23199384  0.0803406 0.8500
 34  -1044.1348104815   0.30439973509510.13679207  0.18698230  0.0361216 0.8500
 35  -1043.8677073856   0.26710309593157.54093337  1.05807817  0.0272277 0.0000
 36  -1042.3367738843   1.530933501298 0.45015808  0.00959920  0.1921564 0.8500
 37  -1042.3375779927  -0.000804108459 0.64752385  0.01388284  0.1923578 0.8500
 38  -1042.3387317989  -0.001153806199 0.71938434  0.01546796  0.1926418 0.8500
 39  -1042.3400344465  -0.001302647579 0.74120570  0.01595985  0.1929403 0.8500
 40  -1042.3414289795  -0.001394533016 0.75575622  0.01629476  0.1932192 0.8500
 41  -1042.3429386058  -0.001509626318 0.79864590  0.01722914  0.1934600 0.8500
 42  -1042.3447087842  -0.001770178372 0.84333199  0.01823779  0.1936483 0.8500
 43  -1042.3467680792  -0.002059294986 0.93299017  0.01972068  0.1938008 0.8500
 44  -1042.3490708715  -0.002302792345 1.09101191  0.02184146  0.1939702 0.8500
 45  -1042.3518399049  -0.002769033349 1.44195936  0.02704780  0.1941550 0.8500
 46  -1042.3467062962   0.005133608671 3.90369734  0.08407962  0.1954448 0.8500
 47  -1042.3425597383   0.00414655789210.39470086  0.21795728  0.1967452 0.8500
 48  -1041.9518837584   0.39067597990013.12425281  0.24619652  0.2344840 0.8500
 49  -1042.3376674746  -0.38578371619311.15416834  0.20923942  0.1905594 0.8500
 50  -1042.6633797906  -0.325712315971 9.46698915  0.17770359  0.1531568 0.8500
 51  -1042.9414019190  -0.278022128394 8.05380245  0.15112321  0.1158417 0.8500
 52  -1043.1737499087  -0.232347989759 6.84847014  0.12848204  0.0869156 0.8500
 53  -1043.3692003286  -0.195450419856 5.82270553  0.10922413  0.0637405 0.8500
 54  -1043.5341682275  -0.164967898957 4.95010838  0.09284849  0.0448453 0.8500
 55  -1043.6736712427  -0.139503015174 4.20824207  0.07892823  0.0302406 0.8500
 56  -1043.7917787777  -0.11810753493423.84958946  0.44729325  0.0259127 0.0000
 57  -1044.4458676898  -0.65408891214319.07107397  0.26454024  0.1342581 0.8500
 58  -1044.1916259288   0.25424176102719.07321610  0.26458141  0.0153217 0.0000
 59  -1044.4463864149  -0.254760486173 0.00075184  0.00001878  0.0549894 0.8500
 60  -1044.4464381460  -0.000051731034 0.00070038  0.00001704  0.0718698 0.8500
 61  -1044.4464854122  -0.000047266208 0.00063716  0.00001468  0.0910715 0.8500
 62  -1044.4465200161  -0.000034603953 7.22540314  0.11839632  0.0875422 0.8500
 63  -1044.1953072292   0.251212786956 7.22796368  0.11840244  0.0134802 0.0000
 64  -1044.4469311091  -0.251623879967 0.00052577  0.00001157  0.0512837 0.8500
 65  -1044.4469315180  -0.000000408820 0.00114655  0.00001766  0.0512732 0.8500
 66  -1044.4469215153   0.000010002646 0.00158180  0.00002388  0.0512973 0.8500
 67  -1044.4469076462   0.000013869167 0.00190497  0.00002915  0.0513348 0.8500
 68  -1044.4468945159   0.000013130208 0.00209579  0.00003261  0.0513730 0.8500
 69  -1044.4468835549   0.000010961067 0.00217094  0.00003435  0.0514050 0.8500
 70  -1044.4468753821   0.000008172790 0.00223111  0.00003573  0.0514258 0.8500
 71  -1044.4468729819   0.000002400145 0.00175878  0.00003689  0.0514298 0.8500
 72  -1044.4469489274  -0.000075945436 2.60077367  0.06299084  0.0511755 0.8500
 73  -1044.1898024099   0.257146517464 6.78158319  0.16777450  0.0117854 0.0000
 74  -1042.4994252094   1.690377200557 0.16925927  0.00566679  0.2118067 0.8500
 75  -1042.5014471492  -0.002021939861 0.49040944  0.01406157  0.2118092 0.8500
 76  -1042.5061364030  -0.004689253797 0.43237083  0.01206862  0.2118263 0.8500
 77  -1042.5105009880  -0.004364585031 0.42125247  0.01175294  0.2118358 0.8500
 78  -1042.5149305234  -0.004429535332 5.48794772  0.08246912  0.2118393 0.8500
 79  -1042.5045111889   0.010419334524 5.87849454  0.08780918  0.2121553 0.8500
 80  -1042.4942504035   0.010260785401 5.14700430  0.07714457  0.2124993 0.8500
 81  -1042.4853176742   0.008932729257 4.39348716  0.06592458  0.2128084 0.8500
 82  -1042.4776990004   0.007618673845 3.55822221  0.05355472  0.2130707 0.8500
 83  -1042.4712947841   0.006404216225 2.54596196  0.03966732  0.2132897 0.8500
 84  -1042.4659143499   0.005380434210 2.12869288  0.03289122  0.2134690 0.8500
 85  -1042.4617158991   0.004198450856 4.93273157  0.07259774  0.2136244 0.8500
 86  -1042.4751313152  -0.013415416173 2.73353951  0.07721172  0.2139244 0.8500
 87  -1042.4900733118  -0.014941996533 3.78129348  0.05784121  0.2142078 0.8500
 88  -1042.7938366853  -0.303763373485 3.21001638  0.04910522  0.1749771 0.8500
 89  -1043.0542284024  -0.260391717100 2.73124988  0.04177781  0.1366678 0.8500
 90  -1043.2719478455  -0.217719443194 2.32215834  0.03551943  0.1059433 0.8500
 91  -1043.4548686610  -0.182920815490 1.97403524  0.03019483  0.0806732 0.8500
 92  -1043.6089272442  -0.154058583183 1.67806510  0.02566787  0.0596832 0.8500
 93  -1043.7388796513  -0.129952407127 1.42639743  0.02181906  0.0421737 0.8500
 94  -1043.8486201626  -0.109740511290 8.08409617  0.12365686  0.0275382 0.0000
 95  -1044.4459082434  -0.59728808074918.87381441  0.41412593  0.0837354 0.8500
 96  -1043.6231654850   0.82274275836917.21863159  0.37355650  0.0654910 0.8500
 97  -1042.8071087417   0.81605674330514.81672535  0.32063943  0.1623062 0.8500
 98  -1042.0492797612   0.75782898048412.65928600  0.27372807  0.2444743 0.8500
 99  -1041.3606994883   0.68858027294410.92851851  0.23569595  0.3143019 0.8500
100  -1040.7437019678   0.616997520468 9.63029740  0.20637873  0.3736784 0.8500
101  -1040.1962560099   0.547445957909 8.63582855  0.18334417  0.4241870 0.8500
102  -1039.7140974743   0.482158535632 7.86130698  0.16495537  0.4671713 0.8500
103  -1039.2918213322   0.422276142048 7.41542297  0.15300914  0.5037770 0.8500
104  -1038.9232009329   0.368620399329 7.19478517  0.14557331  0.5350073 0.8500
105  -1038.6022191342   0.32098179866933.23112473  0.44477191  0.5616719 0.8500
106  -1037.6414669310   0.96075220323029.71649143  0.40017972  0.6250791 0.8500
107  -1036.8012347498   0.84023218123926.29393559  0.35573089  0.6791468 0.8500
108  -1036.0709863872   0.73024836251422.52610559  0.30500245  0.7252455 0.8500
109  -1035.4398103793   0.63117600789725.77784304  0.36179886  0.7645203 0.8500
110  -1034.8861020128   0.55370836651831.48630380  0.58419045  0.7976787 0.8500
111  -1036.6933580592  -1.80725604633026.76384525  0.49657327  0.6710534 0.8500
112  -1038.1277713341  -1.43441327492022.75029727  0.42210702  0.5651483 0.8500
113  -1039.2739305638  -1.14615922971319.33832161  0.35879883  0.4760820 0.8500
114  -1040.1975280856  -0.92359752180316.43809319  0.30498683  0.3999947 0.8500
115  -1040.9474283455  -0.74990025994413.97158048  0.25922640  0.3337811 0.8500
116  -1041.5473001671  -0.59987182155611.87574893  0.22034110  0.2824369 0.8500
117  -1042.0345864034  -0.48728623634410.09440662  0.18728618  0.2411045 0.8500
118  -1042.4336632944  -0.399076890942 8.58023745  0.15919172  0.2075350 0.8500
119  -1042.7623561601  -0.328692865712 7.29269597  0.13530687  0.1802862 0.8500
120  -1043.0342717627  -0.271915602633 6.19835423  0.11500354  0.1582940 0.8500
121  -1043.2599459743  -0.225674211616 5.26816490  0.09775026  0.1407586 0.8500
122  -1043.4476211343  -0.187675159967 4.47796511  0.08308718  0.1271152 0.8500
123  -1043.6038264950  -0.156205360722 3.80651624  0.07062595  0.1169496 0.8500
124  -1043.7337489289  -0.129922433843 3.23589380  0.06003851  0.1099900 0.8500
125  -1043.8414771421  -0.107728213176 2.75111351  0.05104698  0.1067034 0.8500
126  -1043.9302351754  -0.088758033330 2.33870480  0.04339574  0.1065938 0.8500
127  -1044.0026467233  -0.072411547955 1.98791088  0.03688581  0.1089782 0.8500
128  -1044.0610419473  -0.058395224000 1.68960061  0.03134995  0.1136972 0.8500
129  -1044.1087343452  -0.047692397901 1.43587084  0.02664244  0.1192123 0.8500
130  -1044.1504729292  -0.041738583966 1.22010871  0.02263928  0.1225388 0.8500
131  -1044.1887082255  -0.038235296250 1.03677606  0.01923748  0.1224926 0.8500
132  -1044.2229189171  -0.034210691670 0.88099688  0.01634673  0.1203759 0.8500
133  -1044.2525408768  -0.029621959710 0.74866937  0.01389201  0.1173461 0.8500
134  -1044.2780282215  -0.025487344666 0.63616544  0.01181223  0.1128742 0.8500
135  -1044.3004172495  -0.022389027966 0.53877855  0.01005171  0.1082910 0.8500
136  -1044.3203159306  -0.01989868113526.78364787  0.58777884  0.1023757 0.8500
137  -1044.0038046204   0.31651131016738.30005614  0.73596460  0.1332454 0.8500
138  -1042.9976675690   1.00613705144025.70715630  0.50544753  0.2363038 0.8500
139  -1042.1161393225   0.88152824649712.71155675  0.25168279  0.3259167 0.8500
140  -1042.0721241851   0.04401513743610.58423625  0.20744166  0.3315728 0.8500
141  -1042.0701792812   0.001944903901 9.03973638  0.17675680  0.3350571 0.8500
142  -1042.0757352870  -0.005556005880 7.63412691  0.14959608  0.3382349 0.8500
143  -1042.0837401523  -0.008004865246 6.22262929  0.12232248  0.3415048 0.8500
144  -1042.0938817673  -0.010141615016 4.72230871  0.09436594  0.3441757 0.8500
145  -1042.1076962986  -0.013814531343 2.40699767  0.05455574  0.3460011 0.8500
146  -1042.1515796381  -0.04388333943411.52255083  0.21266825  0.3441280 0.8500
147  -1042.3716978457  -0.22011820763617.02059708  0.30369983  0.3216960 0.8500
148  -1042.6615766185  -0.28987877278016.35958118  0.28993960  0.2903192 0.8500
149  -1042.9310613830  -0.26948476454214.29387292  0.25281467  0.2605369 0.8500
150  -1043.1622269683  -0.23116558525312.22273306  0.21605066  0.2347453 0.8500
151  -1043.3574458142  -0.19521884594810.40614876  0.18387779  0.2128159 0.8500
152  -1043.5246733650  -0.167227550717 8.84326795  0.15627190  0.1923888 0.8500
153  -1043.6677854335  -0.143112068557 7.51697300  0.13283582  0.1730914 0.8500
154  -1043.7879746454  -0.120189211854 6.38981640  0.11291208  0.1569807 0.8500
155  -1043.8893372623  -0.101362616939 5.43187451  0.09597814  0.1431562 0.8500
156  -1043.9749349273  -0.085597664947 4.61745899  0.08158490  0.1312096 0.8500
157  -1044.0473001935  -0.072365266223 3.92485803  0.06934790  0.1208107 0.8500
158  -1044.1085621248  -0.061261931291 3.33602215  0.05894455  0.1116597 0.8500
159  -1044.1605089968  -0.051946872022 2.83551753  0.05010173  0.1034769 0.8500
160  -1044.2046732334  -0.044164236653 2.41009547  0.04258624  0.0959451 0.8500
161  -1044.2424576973  -0.037784463806 2.04835017  0.03619713  0.0885338 0.8500
162  -1044.2751941246  -0.032736427388 1.74108281  0.03077165  0.0803563 0.8500
163  -1044.3034212052  -0.028227080576 1.48017253  0.02616174  0.0717161 0.8500
164  -1044.3274773207  -0.024056115444 1.25829747  0.02223987  0.0632983 0.8500
165  -1044.3478396465  -0.020362325864 1.06947026  0.01890251  0.0554231 0.8500
166  -1044.3650085938  -0.017168947242 0.90865873  0.01606325  0.0482075 0.8500
167  -1044.3794444601  -0.014435866338 0.77186590  0.01364876  0.0417058 0.8500
168  -1044.3915551934  -0.012110733295 0.65557282  0.01159544  0.0359299 0.8500
169  -1044.4017003822  -0.010145188804 0.55678837  0.00985162  0.0308574 0.8500
170  -1044.4101927088  -0.008492326586 3.15386940  0.05581175  0.0264382 0.0000
171  -1044.4530532062  -0.04286049744552.80440441  1.06024433  0.0095723 0.0000
172  -1036.6190699329   7.833983273347 0.05370761  0.00114661  0.7804986 0.8500
173  -1036.6179018489   0.001168083956 0.04729793  0.00092776  0.7808425 0.8500
174  -1036.6163104049   0.001591444043 0.02713984  0.00042235  0.7812658 0.8500
175  -1036.6146050019   0.001705402963 0.02936252  0.00060083  0.7816781 0.8500
176  -1036.6128450289   0.001759973069 0.07486204  0.00148397  0.7820599 0.8500
177  -1036.6109898231   0.001855205770 0.12536769  0.00249304  0.7824175 0.8500
178  -1036.6089775761   0.002012246945 0.17366937  0.00345488  0.7827646 0.8500
179  -1036.6067765063   0.002201069832 0.21369921  0.00423976  0.7831131 0.8500
180  -1036.6043848231   0.002391683181 0.24283199  0.00478383  0.7834739 0.8500
181  -1036.6018109223   0.002573900857 0.25562569  0.00499073  0.7838589 0.8500
182  -1036.5991115438   0.002699378486 0.24684684  0.00479228  0.7842732 0.8500
183  -1036.5964268812   0.002684662545 0.21546423  0.00417556  0.7847026 0.8500
184  -1036.5939823363   0.002444544949 0.18839488  0.00371838  0.7851040 0.8500
185  -1036.5920439804   0.001938355936 0.77001247  0.01552504  0.7853877 0.8500
186  -1036.5917034799   0.000340500503 7.53383968  0.15589749  0.7847519 0.8500
187  -1038.3180702368  -1.726366756908 7.10985851  0.14218100  0.5013568 0.8500
188  -1039.5500860200  -1.232015783264 6.05559303  0.12103921  0.3414340 0.8500
189  -1040.4777089114  -0.927622891374 5.14850944  0.10290291  0.2270057 0.8500
190  -1041.1934839898  -0.715775078381 4.37662615  0.08747437  0.1402793 0.8500
191  -1041.7549373132  -0.561453323407 3.72015126  0.07435741  0.0732333 0.8500
192  -1042.2015139071  -0.446576593930 3.16172642  0.06319764  0.0348664 0.8500
193  -1042.5606809625  -0.359167055431 2.68735081  0.05371646  0.0650603 0.8500
194  -1042.8511392782  -0.290458315615 2.28432857  0.04566041  0.0957920 0.8500
195  -1043.0864787934  -0.235339515257 1.94103795  0.03879877  0.1243689 0.8500
196  -1043.2779931595  -0.191514366085 1.64963789  0.03297461  0.1500865 0.8500
197  -1043.4347931834  -0.156800023878 1.40203510  0.02802888  0.1725085 0.8500
198  -1043.5639222891  -0.129129105748 1.19154795  0.02382297  0.1917263 0.8500
199  -1043.6707949518  -0.106872662696 1.01305745  0.02025231  0.2081793 0.8500
200  -1043.7596973284  -0.088902376568 0.86149794  0.01721996  0.2221226 0.8500
201  -1043.8340140912  -0.074316762815 0.73243167  0.01463911  0.2336678 0.8500
202  -1043.8964695946  -0.062455503356 0.62252011  0.01244148  0.2430813 0.8500
203  -1043.9491651884  -0.052695593829 0.52909424  0.01057379  0.2507056 0.8500
204  -1043.9936227567  -0.044457568285 0.44977114  0.00898763  0.2569444 0.8500
205  -1044.0310464227  -0.037423666024 0.38242191  0.00764108  0.2621688 0.8500
206  -1044.0623990764  -0.031352653680 0.32521662  0.00649797  0.2666703 0.8500
207  -1044.0884667785  -0.026067702139 0.27639003  0.00552330  0.2708813 0.8500
208  -1044.1102502035  -0.021783425020 0.23451743  0.00469255  0.2745669 0.8500
209  -1044.1287403295  -0.018490125939 0.19986228  0.00399897  0.2775513 0.8500
210  -1044.1444987839  -0.015758454382 0.17002967  0.00340188  0.2796494 0.8500
211  -1044.1581164959  -0.013617712003 0.14365151  0.00287864  0.2807466 0.8500
212  -1044.1703501360  -0.012233640120 0.12249432  0.00246676  0.2805798 0.8500
213  -1044.1822506956  -0.011900559599 0.10627163  0.00214364  0.2786187 0.8500
214  -1044.1951407082  -0.012890012654 0.09164420  0.00190205  0.2739977 0.8500
215  -1044.2121475343  -0.017006826027 0.07849887  0.00185714  0.2633484 0.8500
216  -1044.2454424016  -0.033294867308 0.13728879  0.00356068  0.2318250 0.8500
217  -1044.2895135095  -0.044071107938 0.07384843  0.00152865  0.1782200 0.8500
218  -1044.3226229123  -0.033109402773 0.06372110  0.00131220  0.1414317 0.8500
219  -1044.3473256412  -0.024702728882 0.05225354  0.00108424  0.1168657 0.8500
220  -1044.3664918220  -0.019166180864 0.04245024  0.00090795  0.0975913 0.8500
221  -1044.3817504701  -0.015258648089 0.03270702  0.00077238  0.0820943 0.8500
222  -1044.3940369956  -0.012286525445 0.03223832  0.00068783  0.0693724 0.8500
223  -1044.4041554838  -0.010118488246 0.02770355  0.00061237  0.0588293 0.8500
224  -1044.4124986772  -0.008343193392 0.02371991  0.00057555  0.0499733 0.8500
225  -1044.4194053314  -0.006906654198 0.01892373  0.00051740  0.0424830 0.8500
226  -1044.4251268122  -0.005721480787 0.04097056  0.00084787  0.0361312 0.8500
227  -1044.4299614877  -0.00483467554415.43021896  0.34604088  0.0306669 0.8500
228  -1043.8184441673   0.61151732047813.22457745  0.28714169  0.0570223 0.8500
229  -1043.2218324573   0.59661170992612.13751321  0.24986221  0.1306632 0.8500
230  -1042.6266786169   0.59515384046211.51297000  0.22282896  0.2013760 0.8500
231  -1042.0146163702   0.61206224670711.02139903  0.20372821  0.2694949 0.8500
232  -1041.3914218845   0.62319448566310.53495338  0.18959863  0.3347259 0.8500
233  -1040.7815464381   0.609875446393 9.99485539  0.17764152  0.3952069 0.8500
234  -1040.2118934550   0.569652983150 9.44507855  0.16660845  0.4491640 0.8500
235  -1039.6985744740   0.513318980912 8.85736102  0.15402309  0.4958857 0.8500
236  -1039.2461747620   0.452399712065 8.09950071  0.13761184  0.5355661 0.8500
237  -1038.8530820496   0.393092712391 8.23876594  0.13295979  0.5687774 0.8500
238  -1038.5147122204   0.338369829220 6.63406347  0.10503404  0.5962620 0.8500
239  -1038.2289228830   0.285789337346 3.99971539  0.06202339  0.6187571 0.8500
240  -1038.0165157088   0.212407174259 2.83754065  0.06958130  0.6351698 0.8500
241  -1038.1981510027  -0.181635293958 4.91121990  0.09497192  0.6204879 0.8500
242  -1038.4371500166  -0.23899901390218.31718500  0.34545314  0.6015309 0.8500
243  -1039.5086571549  -1.07150713827215.56844595  0.29364713  0.5070693 0.8500
244  -1040.3718288311  -0.86317167619113.23367201  0.24960730  0.4280489 0.8500
245  -1041.0700960058  -0.69826717470311.24896578  0.21216580  0.3624604 0.8500
246  -1041.6399426391  -0.569846633304 9.56017753  0.18033123  0.3072525 0.8500
247  -1042.1088304281  -0.468887789026 8.12576194  0.15327920  0.2599982 0.8500
248  -1042.4945719076  -0.385741479479 6.90667547  0.13028621  0.2205690 0.8500
249  -1042.8132484384  -0.318676530759 5.87061330  0.11074267  0.1879352 0.8500
250  -1043.0776000842  -0.264351645851 4.98998084  0.09413000  0.1607345 0.8500
251  -1043.2976720688  -0.220071984641 4.24147162  0.08000877  0.1380067 0.8500
252  -1043.4814393122  -0.183767243369 3.60550152  0.06801126  0.1189968 0.8500
253  -1043.6352720130  -0.153832700757 3.06488550  0.05781529  0.1030794 0.8500
254  -1043.7643200868  -0.129048073868 2.60516360  0.04914578  0.0897266 0.8500
255  -1043.8727735261  -0.108453439273 2.21429905  0.04177497  0.0784872 0.8500
256  -1043.9640342844  -0.091260758242 1.88210872  0.03550965  0.0690236 0.8500
257  -1044.0408929551  -0.076858670768 1.59975727  0.03018296  0.0610892 0.8500
258  -1044.1056697654  -0.064776810254 1.35975811  0.02565460  0.0544503 0.8500
259  -1044.1602975803  -0.054627814938 1.15575139  0.02180567  0.0488952 0.8500
260  -1044.2063844771  -0.046086896791 0.98241491  0.01853531  0.0442481 0.8500
261  -1044.2452713197  -0.038886842543 0.83529095  0.01575789  0.0403638 0.8500
262  -1044.2780747230  -0.032803403346 0.71037905  0.01339879  0.0371344 0.8500
263  -1044.3057311847  -0.027656461668 0.60406829  0.01139221  0.0344776 0.8500
264  -1044.3290439174  -0.023312732727 0.51365985  0.00968646  0.0323097 0.8500
265  -1044.3486826095  -0.019638692087 0.43681684  0.00823612  0.0305512 0.8500
266  -1044.3652146824  -0.016532072965 2.47691767  0.04669978  0.0291705 0.0000
267  -1044.4504897588  -0.085275076366215.77456123  3.60117996  0.0221628 0.0000
268  -1031.2091372141  13.241352544717 0.20302220  0.00346510  1.0835974 0.8500
269  -1031.2076893798   0.001447834268 0.15940588  0.00280334  1.0838954 0.8500
270  -1031.2051928724   0.002496507422 0.52748240  0.00909814  1.0842491 0.8500
271  -1031.2020564998   0.003136372598 0.82384133  0.01421388  1.0845871 0.8500
272  -1031.1985664968   0.003490002967 1.02472443  0.01771176  1.0848827 0.8500
273  -1031.1949825038   0.003583993014 1.12201972  0.01943107  1.0851217 0.8500
274  -1031.1915578901   0.003424613711 1.11691118  0.01936930  1.0852953 0.8500
275  -1031.1885254840   0.003032406090 1.02067329  0.01770927  1.0853989 0.8500
276  -1031.1860637272   0.002461756812 0.86237339  0.01495825  1.0854355 0.8500
277  -1031.1842435302   0.001820197020 0.68440277  0.01185716  1.0854170 0.8500
278  -1031.1830044292   0.001239100990 0.53557445  0.00927195  1.0853637 0.8500
279  -1031.1821548248   0.000849604440 0.51282462  0.00888340  1.0852998 0.8500
280  -1031.1812899177   0.000864907051 0.79084484  0.01372212  1.0852519 0.8500
281  -1031.1796506900   0.001639227685 1.95892912  0.03433300  1.0852461 0.8500
282  -1031.1747920651   0.00485862493032.24835920  0.53740719  1.0853731 0.8500
283  -1034.1603932881  -2.98560122298029.16366261  0.48698273  0.7013197 0.8500
284  -1036.2782936778  -2.11790038976124.79520303  0.41407630  0.4857764 0.8500
285  -1037.8704329887  -1.59213931086821.07570013  0.35196711  0.3308718 0.8500
286  -1039.0922528859  -1.22181989720017.91347976  0.29916321  0.2135073 0.8500
287  -1040.0433096417  -0.95105675577915.22543533  0.25427392  0.1230082 0.8500
288  -1040.7934164048  -0.75010676309012.94123585  0.21612770  0.0576890 0.8500
289  -1041.3919870528  -0.59857064798611.00003995  0.18370792  0.0629325 0.8500
290  -1041.8732419920  -0.481254939202 9.35025186  0.15615510  0.1033381 0.8500
291  -1042.2613852725  -0.388143280553 7.94776676  0.13273189  0.1410348 0.8500
292  -1042.5758405462  -0.314455273669 6.75544659  0.11281961  0.1749204 0.8500
293  -1042.8321957379  -0.256355191673 5.74203834  0.09589524  0.2045223 0.8500
294  -1043.0424687084  -0.210272970501 4.88069022  0.08150992  0.2300041 0.8500
295  -1043.2158862118  -0.173417503478 4.14840050  0.06928093  0.2517316 0.8500
296  -1043.3596149465  -0.143728734709 3.52577586  0.05888441  0.2701276 0.8500
297  -1043.4793374757  -0.119722529138 2.99673746  0.05004952  0.2855230 0.8500
298  -1043.5797029129  -0.100365437246 2.54721289  0.04254088  0.2981467 0.8500
299  -1043.6642262141  -0.084523301220 2.16494324  0.03615691  0.3084770 0.8500

               *****************************************************
               *                      ERROR                        *
               *        SCF NOT CONVERGED AFTER 300 CYCLES         *
               *****************************************************


---------------
SCF CONVERGENCE
---------------

  Last Energy change         ...   -8.4523e-02  Tolerance :   1.0000e-06
  Last MAX-Density change    ...    1.8404e+00  Tolerance :   1.0000e-05
  Last RMS-Density change    ...    3.0736e-02  Tolerance :   1.0000e-06
  Last DIIS Error            ...    3.0848e-01  Tolerance :   1.0000e-06

     --------------------------------------------------------------------
                                      ERROR
     This wavefunction IS NOT CONVERGED! 
     And it is 'too far' from meeting the convergence thresholds.
     Aborting ...
     Please restart calculation (with larger maxiter?)
     --------------------------------------------------------------------


--------------------------------------------------------------------------
Primary job  terminated normally, but 1 process returned
a non-zero exit code. Per user-direction, the job has been aborted.
--------------------------------------------------------------------------
--------------------------------------------------------------------------
mpirun detected that one or more processes exited with non-zero status, thus causing
the job to be terminated. The first process to do so was:

  Process name: [[28181,1],2]
  Exit code:    125
--------------------------------------------------------------------------

ORCA finished by error termination in SCF
Calling Command: mpirun -np 24  /sw/apps/orca/orca_4_2_0_linux_x86-64_openmpi314/orca_scf_mpi 64_Cr.gbw b 64_Cr 
[file orca_tools/qcmsg.cpp, line 458]: 
  .... aborting the run

[file orca_tools/qcmsg.cpp, line 458]: 
  .... aborting the run

