
                                 *****************
                                 * O   R   C   A *
                                 *****************

           --- An Ab Initio, DFT and Semiempirical electronic structure package ---

                  #######################################################
                  #                        -***-                        #
                  #          Department of theory and spectroscopy      #
                  #               Directorship: Frank Neese             #
                  #        Max Planck Institute fuer Kohlenforschung    #
                  #                Kaiser Wilhelm Platz 1               #
                  #                 D-45470 Muelheim/Ruhr               #
                  #                      Germany                        #
                  #                                                     #
                  #                  All rights reserved                #
                  #                        -***-                        #
                  #######################################################


                         Program Version 4.2.0 -  RELEASE  -


 With contributions from (in alphabetic order):
   Daniel Aravena         : Magnetic Suceptibility
   Michael Atanasov       : Ab Initio Ligand Field Theory (pilot matlab implementation)
   Alexander A. Auer      : GIAO ZORA, VPT2
   Ute Becker             : Parallelization
   Giovanni Bistoni       : ED, misc. LED, open-shell LED, HFLED
   Martin Brehm           : Molecular dynamics
   Dmytro Bykov           : SCF Hessian
   Vijay G. Chilkuri      : MRCI spin determinant printing, contributions to CSF-ICE
   Dipayan Datta          : RHF DLPNO-CCSD density
   Achintya Kumar Dutta   : EOM-CC, STEOM-CC
   Dmitry Ganyushin       : Spin-Orbit,Spin-Spin,Magnetic field MRCI
   Miquel Garcia          : C-PCM Hessian, Gaussian charge scheme
   Yang Guo               : DLPNO-NEVPT2, CIM, IAO-localization
   Andreas Hansen         : Spin unrestricted coupled pair/coupled cluster methods
   Benjamin Helmich-Paris : CASSCF linear response (MC-RPA)
   Lee Huntington         : MR-EOM, pCC
   Robert Izsak           : Overlap fitted RIJCOSX, COSX-SCS-MP3, EOM
   Christian Kollmar      : KDIIS, OOCD, Brueckner-CCSD(T), CCSD density
   Simone Kossmann        : Meta GGA functionals, TD-DFT gradient, OOMP2, MP2 Hessian
   Martin Krupicka        : AUTO-CI
   Lucas Lang             : DCDCAS
   Dagmar Lenk            : GEPOL surface, SMD
   Dimitrios Liakos       : Extrapolation schemes; Compound Job, initial MDCI parallelization
   Dimitrios Manganas     : Further ROCIS development; embedding schemes
   Dimitrios Pantazis     : SARC Basis sets
   Taras Petrenko         : DFT Hessian,TD-DFT gradient, ASA, ECA, R-Raman, ABS, FL, XAS/XES, NRVS
   Peter Pinski           : DLPNO-MP2, DLPNO-MP2 Gradient
   Christoph Reimann      : Effective Core Potentials
   Marius Retegan         : Local ZFS, SOC
   Christoph Riplinger    : Optimizer, TS searches, QM/MM, DLPNO-CCSD(T), (RO)-DLPNO pert. Triples
   Tobias Risthaus        : Range-separated hybrids, TD-DFT gradient, RPA, STAB
   Michael Roemelt        : Original ROCIS implementation
   Masaaki Saitow         : Open-shell DLPNO-CCSD energy and density
   Barbara Sandhoefer     : DKH picture change effects
   Avijit Sen             : IP-ROCIS
   Kantharuban Sivalingam : CASSCF convergence, NEVPT2, FIC-MRCI
   Bernardo de Souza      : ESD, SOC TD-DFT
   Georgi Stoychev        : AutoAux, RI-MP2 NMR
   Willem Van den Heuvel  : Paramagnetic NMR
   Boris Wezisla          : Elementary symmetry handling
   Frank Wennmohs         : Technical directorship


 We gratefully acknowledge several colleagues who have allowed us to
 interface, adapt or use parts of their codes:
   Stefan Grimme, W. Hujo, H. Kruse,             : VdW corrections, initial TS optimization,
                  C. Bannwarth                     DFT functionals, gCP, sTDA/sTD-DF
   Ed Valeev, F. Pavosevic, A. Kumar             : LibInt (2-el integral package), F12 methods
   Garnet Chan, S. Sharma, J. Yang, R. Olivares  : DMRG
   Ulf Ekstrom                                   : XCFun DFT Library
   Mihaly Kallay                                 : mrcc  (arbitrary order and MRCC methods)
   Andreas Klamt, Michael Diedenhofen            : otool_cosmo (COSMO solvation model)
   Jiri Pittner, Ondrej Demel                    : Mk-CCSD
   Frank Weinhold                                : gennbo (NPA and NBO analysis)
   Christopher J. Cramer and Donald G. Truhlar   : smd solvation model
   Lars Goerigk                                  : TD-DFT with DH, B97 family of functionals
   V. Asgeirsson, H. Jonsson                     : NEB implementation
   FAccTs GmbH                                   : IRC, NEB, NEB-TS, Multilevel, MM, QM/MM, CI optimization
   S Lehtola, MJT Oliveira, MAL Marques          : LibXC Library


 Your calculation uses the libint2 library for the computation of 2-el integrals
 For citations please refer to: http://libint.valeyev.net

 Your ORCA version has been built with support for libXC version: 4.2.3
 For citations please refer to: https://tddft.org/programs/libxc/

 This ORCA versions uses:
   CBLAS   interface :  Fast vector & matrix operations
   LAPACKE interface :  Fast linear algebra routines
   SCALAPACK package :  Parallel linear algebra routines


Your calculation utilizes the DFT-NL dispersion correction.
Cite in your paper:
Vydrov, O. A.; Van Voorhis, T. J. Chem. Phys. 2010, 133, 244103
Hujo, W.; Grimme, S. J. Chem. Theory Comput. 2011, 7, 3866 
   

----- Orbital basis set information -----
Your calculation utilizes the basis: aug-cc-pVTZ 
    H, B-Ne : Obtained from the ccRepo (grant-hill.group.shef.ac.uk/ccrepo) Feb. 2017
              R. A. Kendall, T. H. Dunning, Jr., R. J. Harrison, J. Chem. Phys. 96, 6796 (1992)
         He : Obtained from the ccRepo (grant-hill.group.shef.ac.uk/ccrepo) Feb. 2017
              D. E. Woon, T. H. Dunning, Jr., J. Chem. Phys. 100, 2975 (1994)
  Li-Be, Na : Obtained from the ccRepo (grant-hill.group.shef.ac.uk/ccrepo) Feb. 2017
              B. P. Prascher, D. E. Woon, K. A. Peterson, T. H. Dunning, Jr., A. K. Wilson, Theor. Chem. Acc. 128, 69 (2011)
         Mg : Obtained from the Peterson Research Group Website (tyr0.chem.wsu.edu/~kipeters) Feb. 2017
              B. P. Prascher, D. E. Woon, K. A. Peterson, T. H. Dunning, Jr., A. K. Wilson, Theor. Chem. Acc. 128, 69 (2011)
      Al-Ar : Obtained from the ccRepo (grant-hill.group.shef.ac.uk/ccrepo) Feb. 2017
              D. E. Woon, T. H. Dunning, Jr., J. Chem. Phys. 98, 1358 (1993)
      Sc-Zn : Obtained from the ccRepo (grant-hill.group.shef.ac.uk/ccrepo) Feb. 2017
              N. B. Balabanov, K. A. Peterson, J. Chem. Phys. 123, 064107 (2005)
              N. B. Balabanov, K. A. Peterson, J. Chem. Phys. 125, 074110 (2006)
      Ga-Kr : Obtained from the ccRepo (grant-hill.group.shef.ac.uk/ccrepo) Feb. 2017
              A. K. Wilson, D. E. Woon, K. A. Peterson, T. H. Dunning, Jr., J. Chem. Phys. 110, 7667 (1999)
     Ag, Au : Obtained from the Peterson Research Group Website (tyr0.chem.wsu.edu/~kipeters) Feb. 2017
              K. A. Peterson, C. Puzzarini, Theor. Chem. Acc. 114, 283 (2005)

----- AuxJK basis set information -----
Your calculation utilizes the auxiliary basis: def2/JK
   H-Ba, Hf-Rn: F. Weigend, J. Comput. Chem. 29, 167 (2008).

================================================================================
                                        WARNINGS
                       Please study these warnings very carefully!
================================================================================


WARNING: your system is open-shell and RHF/RKS was chosen
  ===> : WILL SWITCH to UHF/UKS


INFO   : the flag for use of LIBINT has been found!

================================================================================
                                       INPUT FILE
================================================================================
NAME = 65_Mn.in
|  1> #
|  2> # 65_Mn wb97m-v/aug-cc-pvtz
|  3> #
|  4> ! wb97m-v aug-cc-pvtz def2/jk grid4 nofinalgrid
|  5> 
|  6> *xyz 0 6
|  7> Mn 0.0 0.0 0.0
|  8> *
|  9> 
| 10> %pal
| 11> nprocs 24
| 12> end
| 13> 
| 14> 
| 15>                          ****END OF INPUT****
================================================================================

                       ****************************
                       * Single Point Calculation *
                       ****************************

---------------------------------
CARTESIAN COORDINATES (ANGSTROEM)
---------------------------------
  Mn     0.000000    0.000000    0.000000

----------------------------
CARTESIAN COORDINATES (A.U.)
----------------------------
  NO LB      ZA    FRAG     MASS         X           Y           Z
   0 Mn   25.0000    0    54.940    0.000000    0.000000    0.000000

--------------------------------
INTERNAL COORDINATES (ANGSTROEM)
--------------------------------
 Mn     0   0   0     0.000000000000     0.00000000     0.00000000

---------------------------
INTERNAL COORDINATES (A.U.)
---------------------------
 Mn     0   0   0     0.000000000000     0.00000000     0.00000000

---------------------
BASIS SET INFORMATION
---------------------
There are 1 groups of distinct atoms

 Group   1 Type Mn  : 116s77p23d3f2g contracted to 8s7p5d3f2g pattern {19191919191911/151515151511/77711/111/11}

Atom   0Mn   basis set group =>   1
----------------------------------
AUXILIARY/JK BASIS SET INFORMATION
----------------------------------
There are 1 groups of distinct atoms

 Group   1 Type Mn  : 19s14p12d10f7g3h1i contracted to 16s13p11d9f5g3h1i pattern {4111111111111111/2111111111111/21111111111/211111111/31111/111/1}

Atom   0Mn   basis set group =>   1


           ************************************************************
           *        Program running with 24 parallel MPI-processes    *
           *              working on a common directory               *
           ************************************************************
------------------------------------------------------------------------------
                           ORCA GTO INTEGRAL CALCULATION
------------------------------------------------------------------------------

                         BASIS SET STATISTICS AND STARTUP INFO

 # of primitive gaussian shells          ...  221
 # of primitive gaussian functions       ...  501
 # of contracted shells                  ...   25
 # of contracted basis functions         ...   93
 Highest angular momentum                ...    4
 Maximum contraction depth               ...   19
 Integral package used                   ... LIBINT
 Integral threshhold            Thresh   ...  1.000e-10
 Primitive cut-off              TCut     ...  1.000e-11


------------------------------ INTEGRAL EVALUATION ----------------------------


 * One electron integrals 
 Pre-screening matrix                    ... done
 Shell pair data                         ... done (   0.001 sec)



           ************************************************************
           *        Program running with 24 parallel MPI-processes    *
           *              working on a common directory               *
           ************************************************************
-------------------------------------------------------------------------------
                                 ORCA SCF
-------------------------------------------------------------------------------

------------
SCF SETTINGS
------------
Hamiltonian:
 Density Functional     Method          .... DFT(GTOs)
 Exchange Functional    Exchange        .... WB97M-V
 Correlation Functional Correlation     .... WB97M-V
 Gradients option       PostSCFGGA      .... off
 Hybrid DFT is turned on
   Fraction HF Exchange ScalHFX         ....  0.150000
   Scaling of DF-GGA-X  ScalDFX         ....  0.000000
   Scaling of DF-GGA-C  ScalDFC         ....  1.000000
   Scaling of DF-LDA-C  ScalLDAC        ....  1.000000
   Perturbative correction              ....  0.000000
   Density functional embedding theory  .... OFF
 Long-range corrected/Screened/Range-Separated Hybrid DFT is turned on
   Amount of maximum screened exact exchange              ....  0.850000
   Range separation parameter mu (erf(mu*r12)/r12)        ....  0.300000
   NL short-range parameter             ....  6.000000
   NL long-range parameter              ....  0.010000


General Settings:
 Integral files         IntName         .... 65_Mn
 Hartree-Fock type      HFTyp           .... UHF
 Total Charge           Charge          ....    0
 Multiplicity           Mult            ....    6
 Number of Electrons    NEL             ....   25
 Basis Dimension        Dim             ....   93
 Nuclear Repulsion      ENuc            ....      0.0000000000 Eh

Convergence Acceleration:
 DIIS                   CNVDIIS         .... on
   Start iteration      DIISMaxIt       ....    12
   Startup error        DIISStart       ....  0.200000
   # of expansion vecs  DIISMaxEq       ....     5
   Bias factor          DIISBfac        ....   1.050
   Max. coefficient     DIISMaxC        ....  10.000
 Newton-Raphson         CNVNR           .... off
 SOSCF                  CNVSOSCF        .... off
 Level Shifting         CNVShift        .... on
   Level shift para.    LevelShift      ....    0.2500
   Turn off err/grad.   ShiftErr        ....    0.0010
 Zerner damping         CNVZerner       .... off
 Static damping         CNVDamp         .... on
   Fraction old density DampFac         ....    0.7000
   Max. Damping (<1)    DampMax         ....    0.9800
   Min. Damping (>=0)   DampMin         ....    0.0000
   Turn off err/grad.   DampErr         ....    0.1000
 Fernandez-Rico         CNVRico         .... off

SCF Procedure:
 Maximum # iterations   MaxIter         ....   125
 SCF integral mode      SCFMode         .... Direct
   Integral package                     .... LIBINT
 Reset frequency        DirectResetFreq ....    20
 Integral Threshold     Thresh          ....  1.000e-10 Eh
 Primitive CutOff       TCut            ....  1.000e-11 Eh

Convergence Tolerance:
 Convergence Check Mode ConvCheckMode   .... Total+1el-Energy
 Convergence forced     ConvForced      .... 0
 Energy Change          TolE            ....  1.000e-06 Eh
 1-El. energy change                    ....  1.000e-03 Eh
 DIIS Error             TolErr          ....  1.000e-06


Diagonalization of the overlap matrix:
Smallest eigenvalue                        ... 1.644e-04
Time for diagonalization                   ...    0.003 sec
Threshold for overlap eigenvalues          ... 1.000e-08
Number of eigenvalues below threshold      ... 0
Time for construction of square roots      ...    0.002 sec
Total time needed                          ...    0.005 sec

-------------------
DFT GRID GENERATION
-------------------

General Integration Accuracy     IntAcc      ...  4.670
Radial Grid Type                 RadialGrid  ... Gauss-Chebyshev
Angular Grid (max. acc.)         AngularGrid ... Lebedev-302
Angular grid pruning method      GridPruning ... 3 (G Style)
Weight generation scheme         WeightScheme... Becke
Basis function cutoff            BFCut       ...    1.0000e-10
Integration weight cutoff        WCut        ...    1.0000e-14
Grids for H and He will be reduced by one unit

# of grid points (after initial pruning)     ...   9664 (   0.0 sec)
# of grid points (after weights+screening)   ...   9664 (   0.0 sec)
Grid point division into batches done        ...    0.1 sec
Reduced shell lists constructed in    0.1 sec

Total number of grid points                  ...     9664
Total number of batches                      ...      152
Average number of points per batch           ...       63
Average number of grid points per atom       ...     9664
Average number of shells per batch           ...    10.62 (42.50%)
Average number of basis functions per batch  ...    26.38 (28.36%)
Average number of large shells per batch     ...     4.88 (45.88%)
Average number of large basis fcns per batch ...    12.38 (46.92%)
Maximum spatial batch extension              ...  27.95, 22.27, 22.27 au
Average spatial batch extension              ...   0.96,  0.88,  0.86 au

Time for grid setup =    0.124 sec

------------------------------
INITIAL GUESS: MODEL POTENTIAL
------------------------------
Loading Hartree-Fock densities                     ... done
Calculating cut-offs                               ... done
Setting up the integral package                    ... done
Initializing the effective Hamiltonian             ... done
Starting the Coulomb interaction                   ... done (   0.0 sec)
Reading the grid                                   ... done
Mapping shells                                     ... done
Starting the XC term evaluation                    ... done (   0.0 sec)
  promolecular density results
     # of electrons  =     24.999991684
     EX              =    -50.566733472
     EC              =     -1.070326187
     EX+EC           =    -51.637059660
Transforming the Hamiltonian                       ... done (   0.0 sec)
Diagonalizing the Hamiltonian                      ... done (   0.0 sec)
Back transforming the eigenvectors                 ... done (   0.0 sec)
Now organizing SCF variables                       ... done
                      ------------------
                      INITIAL GUESS DONE (   0.2 sec)
                      ------------------
--------------
SCF ITERATIONS
--------------
ITER       Energy         Delta-E        Max-DP      RMS-DP      [F,P]     Damp
               ***  Starting incremental Fock matrix formation  ***
  0  -1150.9306760700   0.000000000000 2.56814924  0.03403876  0.1907829 0.7000
  1  -1150.8902905470   0.040385522958 0.69383869  0.01033171  0.0578710 0.7000
                               ***Turning on DIIS***
  2  -1150.8667825119   0.023508035094 1.35275136  0.02266716  0.0611623 0.0000
  3  -1151.0055707518  -0.138788239919 0.30141125  0.00301873  0.0950194 0.0000
  4  -1151.0313121141  -0.025741362311 0.20841667  0.00357725  0.0383018 0.0000
  5  -1151.0342490617  -0.002936947592 0.09822738  0.00128360  0.0322939 0.0000
  6  -1151.0385887135  -0.004339651759 0.04170104  0.00060435  0.0145906 0.0000
  7  -1151.0401756946  -0.001586981160 0.01877715  0.00032125  0.0109499 0.0000
  8  -1151.0409161872  -0.000740492564 0.02469657  0.00030215  0.0094131 0.0000
  9  -1151.0416111118  -0.000694924611 0.02971451  0.00032874  0.0074332 0.0000
 10  -1151.0421911529  -0.000580041038 0.01980582  0.00021354  0.0050066 0.0000
 11  -1151.0424662270  -0.000275074113 0.01999082  0.00020841  0.0033393 0.0000
 12  -1151.0426450666  -0.000178839618 0.01106506  0.00011143  0.0017126 0.0000
 13  -1151.0427182393  -0.000073172670 0.01123570  0.00011106  0.0008936 0.0000
 14  -1151.0427513786  -0.000033139306 0.00070658  0.00001740  0.0004268 0.0000
 15  -1151.0427583951  -0.000007016486 0.00059456  0.00000711  0.0000827 0.0000
                 **** Energy Check signals convergence ****

               *****************************************************
               *                     SUCCESS                       *
               *           SCF CONVERGED AFTER  16 CYCLES          *
               *****************************************************


Setting up the DFT-NL grid :

General Integration Accuracy     IntAcc      ...  4.340
Radial Grid Type                 RadialGrid  ... Gauss-Chebyshev
Angular Grid (max. acc.)         AngularGrid ... Lebedev-110
Angular grid pruning method      GridPruning ... 3 (G Style)
Weight generation scheme         WeightScheme... Becke
Basis function cutoff            BFCut       ...    1.0000e-10
Integration weight cutoff        WCut        ...    1.0000e-14
Grids for H and He will be reduced by one unit

# of grid points (after initial pruning)     ...   2912 (   0.0 sec)
# of grid points (after weights+screening)   ...   2912 (   0.0 sec)
Grid point division into batches done        ...    0.0 sec
Reduced shell lists constructed in    0.0 sec

Total number of grid points                  ...     2912
Total number of batches                      ...       46
Average number of points per batch           ...       63
Average number of grid points per atom       ...     2912
Average number of shells per batch           ...    14.00 (56.00%)
Average number of basis functions per batch  ...    40.67 (43.73%)
Average number of large shells per batch     ...    10.00 (71.43%)
Average number of large basis fcns per batch ...    27.33 (67.21%)
Maximum spatial batch extension              ...  18.98, 28.73, 28.73 au
Average spatial batch extension              ...   0.83,  1.25,  1.25 au

Final grid set up in    0.0 sec

-------------------------------------------------------------------------------
                         DFT-NL dispersion correction                          
-------------------------------------------------------------------------------

SC Energy -1151.042758714 
NL    Energy 0.105996881 
SC+NL Energy -1150.936761833 
NL done in    0.0 sec
-------------------------------------------------------------------------------

----------------
TOTAL SCF ENERGY
----------------

Total Energy       :        -1150.93676183 Eh          -31318.58150 eV

Components:
Nuclear Repulsion  :            0.00000000 Eh               0.00000 eV
Electronic Energy  :        -1150.93676183 Eh          -31318.58150 eV
One Electron Energy:        -1585.16858260 Eh          -43134.63005 eV
Two Electron Energy:          434.23182077 Eh           11816.04856 eV

Virial components:
Potential Energy   :        -2300.56935220 Eh          -62601.67468 eV
Kinetic Energy     :         1149.63259037 Eh           31283.09319 eV
Virial Ratio       :            2.00113442


DFT components:
N(Alpha)           :       15.000002268405 electrons
N(Beta)            :       10.000001755196 electrons
N(Total)           :       25.000004023601 electrons
E(X)               :      -39.825293648152 Eh       
E(C)               :       -1.226873352410 Eh       
NL Energy, E(C,NL) :        0.105996880971 Eh       
E(XC)              :      -40.946170119591 Eh       
DFET-embed. en.    :        0.000000000000 Eh       

---------------
SCF CONVERGENCE
---------------

  Last Energy change         ...   -3.1917e-07  Tolerance :   1.0000e-06
  Last MAX-Density change    ...    1.3981e-04  Tolerance :   1.0000e-05
  Last RMS-Density change    ...    1.7631e-06  Tolerance :   1.0000e-06
  Last DIIS Error            ...    2.0461e-05  Tolerance :   1.0000e-06

             **** THE GBW FILE WAS UPDATED (65_Mn.gbw) ****
             **** DENSITY FILE WAS UPDATED (65_Mn.scfp) ****
             **** ENERGY FILE WAS UPDATED (65_Mn.en.tmp) ****
----------------------
UHF SPIN CONTAMINATION
----------------------

Warning: in a DFT calculation there is little theoretical justification to 
         calculate <S**2> as in Hartree-Fock theory. We will do it anyways
         but you should keep in mind that the values have only limited relevance

Expectation value of <S**2>     :     8.754715
Ideal value S*(S+1) for S=2.5   :     8.750000
Deviation                       :     0.004715

             **** THE GBW FILE WAS UPDATED (65_Mn.gbw) ****
             **** DENSITY FILE WAS UPDATED (65_Mn.scfp) ****
----------------
ORBITAL ENERGIES
----------------
                 SPIN UP ORBITALS
  NO   OCC          E(Eh)            E(eV) 
   0   1.0000    -235.994977     -6421.7498 
   1   1.0000     -27.625823      -751.7369 
   2   1.0000     -23.606399      -642.3628 
   3   1.0000     -23.606396      -642.3627 
   4   1.0000     -23.606396      -642.3627 
   5   1.0000      -3.459644       -94.1417 
   6   1.0000      -2.305434       -62.7340 
   7   1.0000      -2.305431       -62.7340 
   8   1.0000      -2.305429       -62.7339 
   9   1.0000      -0.482140       -13.1197 
  10   1.0000      -0.482140       -13.1197 
  11   1.0000      -0.482139       -13.1197 
  12   1.0000      -0.482138       -13.1197 
  13   1.0000      -0.482136       -13.1196 
  14   1.0000      -0.289526        -7.8784 
  15   0.0000       0.000557         0.0152 
  16   0.0000       0.000560         0.0152 
  17   0.0000       0.000562         0.0153 
  18   0.0000       0.010243         0.2787 
  19   0.0000       0.047488         1.2922 
  20   0.0000       0.047491         1.2923 
  21   0.0000       0.047494         1.2924 
  22   0.0000       0.067263         1.8303 
  23   0.0000       0.067263         1.8303 
  24   0.0000       0.067264         1.8303 
  25   0.0000       0.067264         1.8304 
  26   0.0000       0.067264         1.8304 
  27   0.0000       0.124296         3.3823 
  28   0.0000       0.202730         5.5166 
  29   0.0000       0.202734         5.5167 
  30   0.0000       0.202737         5.5167 
  31   0.0000       0.277600         7.5539 
  32   0.0000       0.277600         7.5539 
  33   0.0000       0.277602         7.5539 
  34   0.0000       0.277604         7.5540 
  35   0.0000       0.277605         7.5540 
  36   0.0000       0.490240        13.3401 
  37   0.0000       0.733634        19.9632 
  38   0.0000       0.733634        19.9632 
  39   0.0000       0.733638        19.9633 
  40   0.0000       0.733640        19.9633 
  41   0.0000       0.733641        19.9634 
  42   0.0000       0.733647        19.9635 
  43   0.0000       0.733647        19.9635 
  44   0.0000       0.736478        20.0406 
  45   0.0000       0.736483        20.0407 
  46   0.0000       0.736491        20.0409 
  47   0.0000       0.997751        27.1502 
  48   0.0000       0.997751        27.1502 
  49   0.0000       0.997756        27.1503 
  50   0.0000       0.997759        27.1504 
  51   0.0000       0.997761        27.1505 
  52   0.0000       2.222103        60.4665 
  53   0.0000       2.222103        60.4665 
  54   0.0000       2.222110        60.4667 
  55   0.0000       2.222112        60.4667 
  56   0.0000       2.222115        60.4668 
  57   0.0000       2.222121        60.4670 
  58   0.0000       2.222121        60.4670 
  59   0.0000       2.586491        70.3820 
  60   0.0000       2.691759        73.2465 
  61   0.0000       2.691765        73.2467 
  62   0.0000       2.691776        73.2469 
  63   0.0000       2.712586        73.8132 
  64   0.0000       2.712586        73.8132 
  65   0.0000       2.712593        73.8134 
  66   0.0000       2.712593        73.8134 
  67   0.0000       2.712597        73.8135 
  68   0.0000       2.712599        73.8136 
  69   0.0000       2.712601        73.8136 
  70   0.0000       2.712606        73.8138 
  71   0.0000       2.712606        73.8138 
  72   0.0000       3.895902       106.0129 
  73   0.0000       3.895902       106.0129 
  74   0.0000       3.895906       106.0130 
  75   0.0000       3.895907       106.0130 
  76   0.0000       3.895910       106.0131 
  77   0.0000       7.464360       203.1156 
  78   0.0000       7.464361       203.1156 
  79   0.0000       7.464362       203.1156 
  80   0.0000       7.464362       203.1156 
  81   0.0000       7.464363       203.1156 
  82   0.0000       7.464365       203.1157 
  83   0.0000       7.464365       203.1157 
  84   0.0000       7.986222       217.3161 
  85   0.0000       7.986222       217.3161 
  86   0.0000       7.986225       217.3162 
  87   0.0000       7.986225       217.3162 
  88   0.0000       7.986229       217.3163 
  89   0.0000       7.986229       217.3163 
  90   0.0000       7.986231       217.3164 
  91   0.0000       7.986233       217.3164 
  92   0.0000       7.986233       217.3165 

                 SPIN DOWN ORBITALS
  NO   OCC          E(Eh)            E(eV) 
   0   1.0000    -235.993079     -6421.6982 
   1   1.0000     -27.527555      -749.0628 
   2   1.0000     -23.528048      -640.2307 
   3   1.0000     -23.528045      -640.2307 
   4   1.0000     -23.528045      -640.2307 
   5   1.0000      -3.242676       -88.2377 
   6   1.0000      -2.064995       -56.1914 
   7   1.0000      -2.064991       -56.1913 
   8   1.0000      -2.064980       -56.1910 
   9   1.0000      -0.259833        -7.0704 
  10   0.0000       0.009966         0.2712 
  11   0.0000       0.009967         0.2712 
  12   0.0000       0.009969         0.2713 
  13   0.0000       0.018877         0.5137 
  14   0.0000       0.042454         1.1552 
  15   0.0000       0.042480         1.1559 
  16   0.0000       0.042480         1.1559 
  17   0.0000       0.042486         1.1561 
  18   0.0000       0.042489         1.1562 
  19   0.0000       0.058081         1.5805 
  20   0.0000       0.058082         1.5805 
  21   0.0000       0.058083         1.5805 
  22   0.0000       0.082876         2.2552 
  23   0.0000       0.082882         2.2553 
  24   0.0000       0.082884         2.2554 
  25   0.0000       0.082884         2.2554 
  26   0.0000       0.082885         2.2554 
  27   0.0000       0.138500         3.7688 
  28   0.0000       0.216562         5.8930 
  29   0.0000       0.216565         5.8930 
  30   0.0000       0.216568         5.8931 
  31   0.0000       0.302735         8.2378 
  32   0.0000       0.302737         8.2379 
  33   0.0000       0.302741         8.2380 
  34   0.0000       0.302743         8.2381 
  35   0.0000       0.302746         8.2381 
  36   0.0000       0.512629        13.9494 
  37   0.0000       0.730069        19.8662 
  38   0.0000       0.730069        19.8662 
  39   0.0000       0.730077        19.8664 
  40   0.0000       0.730080        19.8665 
  41   0.0000       0.730081        19.8665 
  42   0.0000       0.730086        19.8667 
  43   0.0000       0.730087        19.8667 
  44   0.0000       0.756740        20.5919 
  45   0.0000       0.756749        20.5922 
  46   0.0000       0.756764        20.5926 
  47   0.0000       1.061670        28.8895 
  48   0.0000       1.061671        28.8895 
  49   0.0000       1.061685        28.8899 
  50   0.0000       1.061686        28.8899 
  51   0.0000       1.061691        28.8901 
  52   0.0000       2.304173        62.6997 
  53   0.0000       2.304173        62.6997 
  54   0.0000       2.304182        62.7000 
  55   0.0000       2.304184        62.7000 
  56   0.0000       2.304186        62.7001 
  57   0.0000       2.304187        62.7001 
  58   0.0000       2.304188        62.7001 
  59   0.0000       2.717319        73.9420 
  60   0.0000       2.717319        73.9420 
  61   0.0000       2.717337        73.9425 
  62   0.0000       2.717338        73.9425 
  63   0.0000       2.717339        73.9426 
  64   0.0000       2.717343        73.9427 
  65   0.0000       2.717344        73.9427 
  66   0.0000       2.717347        73.9428 
  67   0.0000       2.717347        73.9428 
  68   0.0000       2.724164        74.1283 
  69   0.0000       2.812500        76.5320 
  70   0.0000       2.812506        76.5322 
  71   0.0000       2.812521        76.5326 
  72   0.0000       4.070666       110.7684 
  73   0.0000       4.070666       110.7685 
  74   0.0000       4.070674       110.7687 
  75   0.0000       4.070675       110.7687 
  76   0.0000       4.070677       110.7687 
  77   0.0000       7.680295       208.9915 
  78   0.0000       7.680295       208.9915 
  79   0.0000       7.680308       208.9918 
  80   0.0000       7.680309       208.9918 
  81   0.0000       7.680311       208.9919 
  82   0.0000       7.680314       208.9920 
  83   0.0000       7.680314       208.9920 
  84   0.0000       8.141190       221.5331 
  85   0.0000       8.141190       221.5331 
  86   0.0000       8.141197       221.5332 
  87   0.0000       8.141197       221.5332 
  88   0.0000       8.141199       221.5333 
  89   0.0000       8.141199       221.5333 
  90   0.0000       8.141200       221.5333 
  91   0.0000       8.141200       221.5333 
  92   0.0000       8.141200       221.5333 

                    ********************************
                    * MULLIKEN POPULATION ANALYSIS *
                    ********************************

--------------------------------------------
MULLIKEN ATOMIC CHARGES AND SPIN POPULATIONS
--------------------------------------------
   0 Mn:    0.000000    5.000000
Sum of atomic charges         :    0.0000000
Sum of atomic spin populations:    5.0000000

-----------------------------------------------------
MULLIKEN REDUCED ORBITAL CHARGES AND SPIN POPULATIONS
-----------------------------------------------------
CHARGE
  0 Mns       :     8.000000  s :     8.000000
      pz      :     4.000000  p :    12.000000
      px      :     4.000000
      py      :     4.000000
      dz2     :     1.000000  d :     5.000000
      dxz     :     1.000000
      dyz     :     1.000000
      dx2y2   :     1.000000
      dxy     :     1.000000
      f0      :     0.000000  f :     0.000000
      f+1     :     0.000000
      f-1     :     0.000000
      f+2     :     0.000000
      f-2     :     0.000000
      f+3     :     0.000000
      f-3     :     0.000000
      g0      :     0.000000  g :     0.000000
      g+1     :     0.000000
      g-1     :     0.000000
      g+2     :     0.000000
      g-2     :     0.000000
      g+3     :     0.000000
      g-3     :     0.000000
      g+4     :     0.000000
      g-4     :     0.000000

SPIN
  0 Mns       :     0.000000  s :     0.000000
      pz      :     0.000000  p :    -0.000000
      px      :    -0.000000
      py      :    -0.000000
      dz2     :     1.000000  d :     5.000000
      dxz     :     1.000000
      dyz     :     1.000000
      dx2y2   :     1.000000
      dxy     :     1.000000
      f0      :     0.000000  f :     0.000000
      f+1     :     0.000000
      f-1     :     0.000000
      f+2     :     0.000000
      f-2     :    -0.000000
      f+3     :     0.000000
      f-3     :    -0.000000
      g0      :     0.000000  g :     0.000000
      g+1     :     0.000000
      g-1     :     0.000000
      g+2     :     0.000000
      g-2     :     0.000000
      g+3     :     0.000000
      g-3     :     0.000000
      g+4     :     0.000000
      g-4     :     0.000000


                     *******************************
                     * LOEWDIN POPULATION ANALYSIS *
                     *******************************

-------------------------------------------
LOEWDIN ATOMIC CHARGES AND SPIN POPULATIONS
-------------------------------------------
   0 Mn:    0.000000    5.000000

----------------------------------------------------
LOEWDIN REDUCED ORBITAL CHARGES AND SPIN POPULATIONS
----------------------------------------------------
CHARGE
  0 Mns       :     8.000000  s :     8.000000
      pz      :     4.000000  p :    12.000000
      px      :     4.000000
      py      :     4.000000
      dz2     :     1.000000  d :     5.000000
      dxz     :     1.000000
      dyz     :     1.000000
      dx2y2   :     1.000000
      dxy     :     1.000000
      f0      :     0.000000  f :     0.000000
      f+1     :     0.000000
      f-1     :     0.000000
      f+2     :     0.000000
      f-2     :     0.000000
      f+3     :     0.000000
      f-3     :     0.000000
      g0      :     0.000000  g :     0.000000
      g+1     :     0.000000
      g-1     :     0.000000
      g+2     :     0.000000
      g-2     :     0.000000
      g+3     :     0.000000
      g-3     :     0.000000
      g+4     :     0.000000
      g-4     :     0.000000

SPIN
  0 Mns       :     0.000000  s :     0.000000
      pz      :     0.000000  p :    -0.000000
      px      :    -0.000000
      py      :    -0.000000
      dz2     :     1.000000  d :     5.000000
      dxz     :     1.000000
      dyz     :     1.000000
      dx2y2   :     1.000000
      dxy     :     1.000000
      f0      :     0.000000  f :     0.000000
      f+1     :     0.000000
      f-1     :     0.000000
      f+2     :     0.000000
      f-2     :    -0.000000
      f+3     :     0.000000
      f-3     :    -0.000000
      g0      :     0.000000  g :     0.000000
      g+1     :     0.000000
      g-1     :     0.000000
      g+2     :     0.000000
      g-2     :     0.000000
      g+3     :     0.000000
      g-3     :     0.000000
      g+4     :     0.000000
      g-4     :     0.000000


                      *****************************
                      * MAYER POPULATION ANALYSIS *
                      *****************************

  NA   - Mulliken gross atomic population
  ZA   - Total nuclear charge
  QA   - Mulliken gross atomic charge
  VA   - Mayer's total valence
  BVA  - Mayer's bonded valence
  FA   - Mayer's free valence

  ATOM       NA         ZA         QA         VA         BVA        FA
  0 Mn    25.0000    25.0000     0.0000     5.0094     0.0000     5.0094

  Mayer bond orders larger than 0.100000


-------
TIMINGS
-------

Total SCF time: 0 days 0 hours 2 min 45 sec 

Total time                  ....     165.320 sec
Sum of individual times     ....     165.012 sec  ( 99.8%)

Fock matrix formation       ....     164.722 sec  ( 99.6%)
  XC integration            ....       0.292 sec  (  0.2% of F)
    Basis function eval.    ....       0.045 sec  ( 15.3% of XC)
    Density eval.           ....       0.040 sec  ( 13.8% of XC)
    XC-Functional eval.     ....       0.013 sec  (  4.4% of XC)
    XC-Potential eval.      ....       0.093 sec  ( 31.8% of XC)
Diagonalization             ....       0.040 sec  (  0.0%)
Density matrix formation    ....       0.008 sec  (  0.0%)
Population analysis         ....       0.004 sec  (  0.0%)
Initial guess               ....       0.087 sec  (  0.1%)
Orbital Transformation      ....       0.000 sec  (  0.0%)
Orbital Orthonormalization  ....       0.000 sec  (  0.0%)
DIIS solution               ....       0.015 sec  (  0.0%)
Grid generation             ....       0.136 sec  (  0.1%)

-------------------------   --------------------
FINAL SINGLE POINT ENERGY     -1150.936761833254
-------------------------   --------------------


                            ***************************************
                            *     ORCA property calculations      *
                            ***************************************

                                    ---------------------
                                    Active property flags
                                    ---------------------
   (+) Dipole Moment


------------------------------------------------------------------------------
                       ORCA ELECTRIC PROPERTIES CALCULATION
------------------------------------------------------------------------------

Dipole Moment Calculation                       ... on
Quadrupole Moment Calculation                   ... off
Polarizability Calculation                      ... off
GBWName                                         ... 65_Mn.gbw
Electron density file                           ... 65_Mn.scfp
The origin for moment calculation is the CENTER OF MASS  = ( 0.000000,  0.000000  0.000000)

-------------
DIPOLE MOMENT
-------------
                                X             Y             Z
Electronic contribution:     -0.00000       0.00000       0.00000
Nuclear contribution   :      0.00000       0.00000       0.00000
                        -----------------------------------------
Total Dipole Moment    :     -0.00000       0.00000       0.00000
                        -----------------------------------------
Magnitude (a.u.)       :      0.00000
Magnitude (Debye)      :      0.00000



--------------------
Rotational spectrum 
--------------------
 
Rotational constants in cm-1:     0.000000     0.000000     0.000000 
Rotational constants in MHz :     0.000000     0.000000     0.000000 

 Dipole components along the rotational axes: 
x,y,z [a.u.] :    -0.000000     0.000000     0.000000 
x,y,z [Debye]:    -0.000001     0.000000     0.000001 

 

Timings for individual modules:

Sum of individual times         ...      168.747 sec (=   2.812 min)
GTO integral calculation        ...        2.808 sec (=   0.047 min)   1.7 %
SCF iterations                  ...      165.940 sec (=   2.766 min)  98.3 %
                             ****ORCA TERMINATED NORMALLY****
TOTAL RUN TIME: 0 days 0 hours 2 minutes 49 seconds 346 msec
