
                                 *****************
                                 * O   R   C   A *
                                 *****************

           --- An Ab Initio, DFT and Semiempirical electronic structure package ---

                  #######################################################
                  #                        -***-                        #
                  #          Department of theory and spectroscopy      #
                  #               Directorship: Frank Neese             #
                  #        Max Planck Institute fuer Kohlenforschung    #
                  #                Kaiser Wilhelm Platz 1               #
                  #                 D-45470 Muelheim/Ruhr               #
                  #                      Germany                        #
                  #                                                     #
                  #                  All rights reserved                #
                  #                        -***-                        #
                  #######################################################


                         Program Version 4.2.0 -  RELEASE  -


 With contributions from (in alphabetic order):
   Daniel Aravena         : Magnetic Suceptibility
   Michael Atanasov       : Ab Initio Ligand Field Theory (pilot matlab implementation)
   Alexander A. Auer      : GIAO ZORA, VPT2
   Ute Becker             : Parallelization
   Giovanni Bistoni       : ED, misc. LED, open-shell LED, HFLED
   Martin Brehm           : Molecular dynamics
   Dmytro Bykov           : SCF Hessian
   Vijay G. Chilkuri      : MRCI spin determinant printing, contributions to CSF-ICE
   Dipayan Datta          : RHF DLPNO-CCSD density
   Achintya Kumar Dutta   : EOM-CC, STEOM-CC
   Dmitry Ganyushin       : Spin-Orbit,Spin-Spin,Magnetic field MRCI
   Miquel Garcia          : C-PCM Hessian, Gaussian charge scheme
   Yang Guo               : DLPNO-NEVPT2, CIM, IAO-localization
   Andreas Hansen         : Spin unrestricted coupled pair/coupled cluster methods
   Benjamin Helmich-Paris : CASSCF linear response (MC-RPA)
   Lee Huntington         : MR-EOM, pCC
   Robert Izsak           : Overlap fitted RIJCOSX, COSX-SCS-MP3, EOM
   Christian Kollmar      : KDIIS, OOCD, Brueckner-CCSD(T), CCSD density
   Simone Kossmann        : Meta GGA functionals, TD-DFT gradient, OOMP2, MP2 Hessian
   Martin Krupicka        : AUTO-CI
   Lucas Lang             : DCDCAS
   Dagmar Lenk            : GEPOL surface, SMD
   Dimitrios Liakos       : Extrapolation schemes; Compound Job, initial MDCI parallelization
   Dimitrios Manganas     : Further ROCIS development; embedding schemes
   Dimitrios Pantazis     : SARC Basis sets
   Taras Petrenko         : DFT Hessian,TD-DFT gradient, ASA, ECA, R-Raman, ABS, FL, XAS/XES, NRVS
   Peter Pinski           : DLPNO-MP2, DLPNO-MP2 Gradient
   Christoph Reimann      : Effective Core Potentials
   Marius Retegan         : Local ZFS, SOC
   Christoph Riplinger    : Optimizer, TS searches, QM/MM, DLPNO-CCSD(T), (RO)-DLPNO pert. Triples
   Tobias Risthaus        : Range-separated hybrids, TD-DFT gradient, RPA, STAB
   Michael Roemelt        : Original ROCIS implementation
   Masaaki Saitow         : Open-shell DLPNO-CCSD energy and density
   Barbara Sandhoefer     : DKH picture change effects
   Avijit Sen             : IP-ROCIS
   Kantharuban Sivalingam : CASSCF convergence, NEVPT2, FIC-MRCI
   Bernardo de Souza      : ESD, SOC TD-DFT
   Georgi Stoychev        : AutoAux, RI-MP2 NMR
   Willem Van den Heuvel  : Paramagnetic NMR
   Boris Wezisla          : Elementary symmetry handling
   Frank Wennmohs         : Technical directorship


 We gratefully acknowledge several colleagues who have allowed us to
 interface, adapt or use parts of their codes:
   Stefan Grimme, W. Hujo, H. Kruse,             : VdW corrections, initial TS optimization,
                  C. Bannwarth                     DFT functionals, gCP, sTDA/sTD-DF
   Ed Valeev, F. Pavosevic, A. Kumar             : LibInt (2-el integral package), F12 methods
   Garnet Chan, S. Sharma, J. Yang, R. Olivares  : DMRG
   Ulf Ekstrom                                   : XCFun DFT Library
   Mihaly Kallay                                 : mrcc  (arbitrary order and MRCC methods)
   Andreas Klamt, Michael Diedenhofen            : otool_cosmo (COSMO solvation model)
   Jiri Pittner, Ondrej Demel                    : Mk-CCSD
   Frank Weinhold                                : gennbo (NPA and NBO analysis)
   Christopher J. Cramer and Donald G. Truhlar   : smd solvation model
   Lars Goerigk                                  : TD-DFT with DH, B97 family of functionals
   V. Asgeirsson, H. Jonsson                     : NEB implementation
   FAccTs GmbH                                   : IRC, NEB, NEB-TS, Multilevel, MM, QM/MM, CI optimization
   S Lehtola, MJT Oliveira, MAL Marques          : LibXC Library


 Your calculation uses the libint2 library for the computation of 2-el integrals
 For citations please refer to: http://libint.valeyev.net

 Your ORCA version has been built with support for libXC version: 4.2.3
 For citations please refer to: https://tddft.org/programs/libxc/

 This ORCA versions uses:
   CBLAS   interface :  Fast vector & matrix operations
   LAPACKE interface :  Fast linear algebra routines
   SCALAPACK package :  Parallel linear algebra routines


Your calculation utilizes the DFT-NL dispersion correction.
Cite in your paper:
Vydrov, O. A.; Van Voorhis, T. J. Chem. Phys. 2010, 133, 244103
Hujo, W.; Grimme, S. J. Chem. Theory Comput. 2011, 7, 3866 
   

----- Orbital basis set information -----
Your calculation utilizes the basis: aug-cc-pVTZ 
    H, B-Ne : Obtained from the ccRepo (grant-hill.group.shef.ac.uk/ccrepo) Feb. 2017
              R. A. Kendall, T. H. Dunning, Jr., R. J. Harrison, J. Chem. Phys. 96, 6796 (1992)
         He : Obtained from the ccRepo (grant-hill.group.shef.ac.uk/ccrepo) Feb. 2017
              D. E. Woon, T. H. Dunning, Jr., J. Chem. Phys. 100, 2975 (1994)
  Li-Be, Na : Obtained from the ccRepo (grant-hill.group.shef.ac.uk/ccrepo) Feb. 2017
              B. P. Prascher, D. E. Woon, K. A. Peterson, T. H. Dunning, Jr., A. K. Wilson, Theor. Chem. Acc. 128, 69 (2011)
         Mg : Obtained from the Peterson Research Group Website (tyr0.chem.wsu.edu/~kipeters) Feb. 2017
              B. P. Prascher, D. E. Woon, K. A. Peterson, T. H. Dunning, Jr., A. K. Wilson, Theor. Chem. Acc. 128, 69 (2011)
      Al-Ar : Obtained from the ccRepo (grant-hill.group.shef.ac.uk/ccrepo) Feb. 2017
              D. E. Woon, T. H. Dunning, Jr., J. Chem. Phys. 98, 1358 (1993)
      Sc-Zn : Obtained from the ccRepo (grant-hill.group.shef.ac.uk/ccrepo) Feb. 2017
              N. B. Balabanov, K. A. Peterson, J. Chem. Phys. 123, 064107 (2005)
              N. B. Balabanov, K. A. Peterson, J. Chem. Phys. 125, 074110 (2006)
      Ga-Kr : Obtained from the ccRepo (grant-hill.group.shef.ac.uk/ccrepo) Feb. 2017
              A. K. Wilson, D. E. Woon, K. A. Peterson, T. H. Dunning, Jr., J. Chem. Phys. 110, 7667 (1999)
     Ag, Au : Obtained from the Peterson Research Group Website (tyr0.chem.wsu.edu/~kipeters) Feb. 2017
              K. A. Peterson, C. Puzzarini, Theor. Chem. Acc. 114, 283 (2005)

----- AuxJK basis set information -----
Your calculation utilizes the auxiliary basis: def2/JK
   H-Ba, Hf-Rn: F. Weigend, J. Comput. Chem. 29, 167 (2008).

================================================================================
                                        WARNINGS
                       Please study these warnings very carefully!
================================================================================


INFO   : the flag for use of LIBINT has been found!

================================================================================
                                       INPUT FILE
================================================================================
NAME = 70_Zn.in
|  1> #
|  2> # 70_Zn wb97m-v/aug-cc-pvtz
|  3> #
|  4> ! wb97m-v aug-cc-pvtz def2/jk grid4 nofinalgrid
|  5> 
|  6> *xyz 0 1
|  7> Zn 0.0 0.0 0.0
|  8> *
|  9> 
| 10> %pal
| 11> nprocs 24
| 12> end
| 13> 
| 14> 
| 15>                          ****END OF INPUT****
================================================================================

                       ****************************
                       * Single Point Calculation *
                       ****************************

---------------------------------
CARTESIAN COORDINATES (ANGSTROEM)
---------------------------------
  Zn     0.000000    0.000000    0.000000

----------------------------
CARTESIAN COORDINATES (A.U.)
----------------------------
  NO LB      ZA    FRAG     MASS         X           Y           Z
   0 Zn   30.0000    0    65.380    0.000000    0.000000    0.000000

--------------------------------
INTERNAL COORDINATES (ANGSTROEM)
--------------------------------
 Zn     0   0   0     0.000000000000     0.00000000     0.00000000

---------------------------
INTERNAL COORDINATES (A.U.)
---------------------------
 Zn     0   0   0     0.000000000000     0.00000000     0.00000000

---------------------
BASIS SET INFORMATION
---------------------
There are 1 groups of distinct atoms

 Group   1 Type Zn  : 116s77p23d3f2g contracted to 8s7p5d3f2g pattern {19191919191911/151515151511/77711/111/11}

Atom   0Zn   basis set group =>   1
----------------------------------
AUXILIARY/JK BASIS SET INFORMATION
----------------------------------
There are 1 groups of distinct atoms

 Group   1 Type Zn  : 19s14p12d10f7g3h1i contracted to 16s13p11d9f5g3h1i pattern {4111111111111111/2111111111111/21111111111/211111111/31111/111/1}

Atom   0Zn   basis set group =>   1


           ************************************************************
           *        Program running with 24 parallel MPI-processes    *
           *              working on a common directory               *
           ************************************************************
------------------------------------------------------------------------------
                           ORCA GTO INTEGRAL CALCULATION
------------------------------------------------------------------------------

                         BASIS SET STATISTICS AND STARTUP INFO

 # of primitive gaussian shells          ...  221
 # of primitive gaussian functions       ...  501
 # of contracted shells                  ...   25
 # of contracted basis functions         ...   93
 Highest angular momentum                ...    4
 Maximum contraction depth               ...   19
 Integral package used                   ... LIBINT
 Integral threshhold            Thresh   ...  1.000e-10
 Primitive cut-off              TCut     ...  1.000e-11


------------------------------ INTEGRAL EVALUATION ----------------------------


 * One electron integrals 
 Pre-screening matrix                    ... done
 Shell pair data                         ... done (   0.001 sec)



           ************************************************************
           *        Program running with 24 parallel MPI-processes    *
           *              working on a common directory               *
           ************************************************************
-------------------------------------------------------------------------------
                                 ORCA SCF
-------------------------------------------------------------------------------

------------
SCF SETTINGS
------------
Hamiltonian:
 Density Functional     Method          .... DFT(GTOs)
 Exchange Functional    Exchange        .... WB97M-V
 Correlation Functional Correlation     .... WB97M-V
 Gradients option       PostSCFGGA      .... off
 Hybrid DFT is turned on
   Fraction HF Exchange ScalHFX         ....  0.150000
   Scaling of DF-GGA-X  ScalDFX         ....  0.000000
   Scaling of DF-GGA-C  ScalDFC         ....  1.000000
   Scaling of DF-LDA-C  ScalLDAC        ....  1.000000
   Perturbative correction              ....  0.000000
   Density functional embedding theory  .... OFF
 Long-range corrected/Screened/Range-Separated Hybrid DFT is turned on
   Amount of maximum screened exact exchange              ....  0.850000
   Range separation parameter mu (erf(mu*r12)/r12)        ....  0.300000
   NL short-range parameter             ....  6.000000
   NL long-range parameter              ....  0.010000


General Settings:
 Integral files         IntName         .... 70_Zn
 Hartree-Fock type      HFTyp           .... RHF
 Total Charge           Charge          ....    0
 Multiplicity           Mult            ....    1
 Number of Electrons    NEL             ....   30
 Basis Dimension        Dim             ....   93
 Nuclear Repulsion      ENuc            ....      0.0000000000 Eh

Convergence Acceleration:
 DIIS                   CNVDIIS         .... on
   Start iteration      DIISMaxIt       ....    12
   Startup error        DIISStart       ....  0.200000
   # of expansion vecs  DIISMaxEq       ....     5
   Bias factor          DIISBfac        ....   1.050
   Max. coefficient     DIISMaxC        ....  10.000
 Newton-Raphson         CNVNR           .... off
 SOSCF                  CNVSOSCF        .... off
 Level Shifting         CNVShift        .... on
   Level shift para.    LevelShift      ....    0.2500
   Turn off err/grad.   ShiftErr        ....    0.0010
 Zerner damping         CNVZerner       .... off
 Static damping         CNVDamp         .... on
   Fraction old density DampFac         ....    0.7000
   Max. Damping (<1)    DampMax         ....    0.9800
   Min. Damping (>=0)   DampMin         ....    0.0000
   Turn off err/grad.   DampErr         ....    0.1000
 Fernandez-Rico         CNVRico         .... off

SCF Procedure:
 Maximum # iterations   MaxIter         ....   125
 SCF integral mode      SCFMode         .... Direct
   Integral package                     .... LIBINT
 Reset frequency        DirectResetFreq ....    20
 Integral Threshold     Thresh          ....  1.000e-10 Eh
 Primitive CutOff       TCut            ....  1.000e-11 Eh

Convergence Tolerance:
 Convergence Check Mode ConvCheckMode   .... Total+1el-Energy
 Convergence forced     ConvForced      .... 0
 Energy Change          TolE            ....  1.000e-06 Eh
 1-El. energy change                    ....  1.000e-03 Eh
 DIIS Error             TolErr          ....  1.000e-06


Diagonalization of the overlap matrix:
Smallest eigenvalue                        ... 6.540e-04
Time for diagonalization                   ...    0.003 sec
Threshold for overlap eigenvalues          ... 1.000e-08
Number of eigenvalues below threshold      ... 0
Time for construction of square roots      ...    0.001 sec
Total time needed                          ...    0.004 sec

-------------------
DFT GRID GENERATION
-------------------

General Integration Accuracy     IntAcc      ...  4.670
Radial Grid Type                 RadialGrid  ... Gauss-Chebyshev
Angular Grid (max. acc.)         AngularGrid ... Lebedev-302
Angular grid pruning method      GridPruning ... 3 (G Style)
Weight generation scheme         WeightScheme... Becke
Basis function cutoff            BFCut       ...    1.0000e-10
Integration weight cutoff        WCut        ...    1.0000e-14
Grids for H and He will be reduced by one unit

# of grid points (after initial pruning)     ...   9640 (   0.0 sec)
# of grid points (after weights+screening)   ...   9640 (   0.0 sec)
Grid point division into batches done        ...    0.1 sec
Reduced shell lists constructed in    0.1 sec

Total number of grid points                  ...     9640
Total number of batches                      ...      151
Average number of points per batch           ...       63
Average number of grid points per atom       ...     9640
Average number of shells per batch           ...     7.50 (30.00%)
Average number of basis functions per batch  ...    15.25 (16.40%)
Average number of large shells per batch     ...     3.75 (50.00%)
Average number of large basis fcns per batch ...     7.75 (50.82%)
Maximum spatial batch extension              ...  22.45, 20.42, 18.83 au
Average spatial batch extension              ...   0.86,  0.81,  0.78 au

Time for grid setup =    0.122 sec

------------------------------
INITIAL GUESS: MODEL POTENTIAL
------------------------------
Loading Hartree-Fock densities                     ... done
Calculating cut-offs                               ... done
Setting up the integral package                    ... done
Initializing the effective Hamiltonian             ... done
Starting the Coulomb interaction                   ... done (   0.0 sec)
Reading the grid                                   ... done
Mapping shells                                     ... done
Starting the XC term evaluation                    ... done (   0.0 sec)
  promolecular density results
     # of electrons  =     30.000011373
     EX              =    -69.527438408
     EC              =     -1.405541621
     EX+EC           =    -70.932980029
Transforming the Hamiltonian                       ... done (   0.0 sec)
Diagonalizing the Hamiltonian                      ... done (   0.0 sec)
Back transforming the eigenvectors                 ... done (   0.0 sec)
Now organizing SCF variables                       ... done
                      ------------------
                      INITIAL GUESS DONE (   0.2 sec)
                      ------------------
--------------
SCF ITERATIONS
--------------
ITER       Energy         Delta-E        Max-DP      RMS-DP      [F,P]     Damp
               ***  Starting incremental Fock matrix formation  ***
  0  -1779.4310378143   0.000000000000 0.01990306  0.00078547  0.2071309 0.7000
  1  -1779.4468350593  -0.015797245087 0.02161100  0.00070796  0.0900708 0.7000
                               ***Turning on DIIS***
  2  -1779.4527754798  -0.005940420464 0.07534333  0.00218078  0.0586692 0.0000
  3  -1779.4657731102  -0.012997630364 0.01038117  0.00031624  0.0295062 0.0000
  4  -1779.4661324409  -0.000359330694 0.01026351  0.00027843  0.0226847 0.0000
  5  -1779.4663850206  -0.000252579681 0.00301133  0.00005318  0.0026185 0.0000
  6  -1779.4663975192  -0.000012498630 0.00515339  0.00006531  0.0009288 0.0000
  7  -1779.4664000338  -0.000002514591 0.00120992  0.00001458  0.0001318 0.0000
                 **** Energy Check signals convergence ****

               *****************************************************
               *                     SUCCESS                       *
               *           SCF CONVERGED AFTER   8 CYCLES          *
               *****************************************************


Setting up the DFT-NL grid :

General Integration Accuracy     IntAcc      ...  4.340
Radial Grid Type                 RadialGrid  ... Gauss-Chebyshev
Angular Grid (max. acc.)         AngularGrid ... Lebedev-110
Angular grid pruning method      GridPruning ... 3 (G Style)
Weight generation scheme         WeightScheme... Becke
Basis function cutoff            BFCut       ...    1.0000e-10
Integration weight cutoff        WCut        ...    1.0000e-14
Grids for H and He will be reduced by one unit

# of grid points (after initial pruning)     ...   2912 (   0.0 sec)
# of grid points (after weights+screening)   ...   2912 (   0.0 sec)
Grid point division into batches done        ...    0.0 sec
Reduced shell lists constructed in    0.0 sec

Total number of grid points                  ...     2912
Total number of batches                      ...       46
Average number of points per batch           ...       63
Average number of grid points per atom       ...     2912
Average number of shells per batch           ...    11.33 (45.33%)
Average number of basis functions per batch  ...    26.00 (27.96%)
Average number of large shells per batch     ...     8.67 (76.47%)
Average number of large basis fcns per batch ...    20.67 (79.49%)
Maximum spatial batch extension              ...  17.39, 26.34, 26.34 au
Average spatial batch extension              ...   0.76,  1.15,  1.15 au

Final grid set up in    0.0 sec

-------------------------------------------------------------------------------
                         DFT-NL dispersion correction                          
-------------------------------------------------------------------------------

SC Energy -1779.466400114 
NL    Energy 0.128197912 
SC+NL Energy -1779.338202202 
NL done in    0.0 sec
-------------------------------------------------------------------------------

----------------
TOTAL SCF ENERGY
----------------

Total Energy       :        -1779.33820220 Eh          -48418.25402 eV

Components:
Nuclear Repulsion  :            0.00000000 Eh               0.00000 eV
Electronic Energy  :        -1779.33820220 Eh          -48418.25402 eV
One Electron Energy:        -2483.00760197 Eh          -67566.07184 eV
Two Electron Energy:          703.66939977 Eh           19147.81782 eV

Virial components:
Potential Energy   :        -3556.82853019 Eh          -96786.22482 eV
Kinetic Energy     :         1777.49032799 Eh           48367.97080 eV
Virial Ratio       :            2.00103960


DFT components:
N(Alpha)           :       15.000006903596 electrons
N(Beta)            :       15.000006903596 electrons
N(Total)           :       30.000013807192 electrons
E(X)               :      -54.894456999990 Eh       
E(C)               :       -1.664471590880 Eh       
NL Energy, E(C,NL) :        0.128197911575 Eh       
E(XC)              :      -56.430730679294 Eh       
DFET-embed. en.    :        0.000000000000 Eh       

---------------
SCF CONVERGENCE
---------------

  Last Energy change         ...   -7.9780e-08  Tolerance :   1.0000e-06
  Last MAX-Density change    ...    6.8026e-05  Tolerance :   1.0000e-05
  Last RMS-Density change    ...    1.0444e-06  Tolerance :   1.0000e-06
  Last DIIS Error            ...    1.2252e-05  Tolerance :   1.0000e-06

             **** THE GBW FILE WAS UPDATED (70_Zn.gbw) ****
             **** DENSITY FILE WAS UPDATED (70_Zn.scfp) ****
             **** ENERGY FILE WAS UPDATED (70_Zn.en.tmp) ****
             **** THE GBW FILE WAS UPDATED (70_Zn.gbw) ****
             **** DENSITY FILE WAS UPDATED (70_Zn.scfp) ****
----------------
ORBITAL ENERGIES
----------------

  NO   OCC          E(Eh)            E(eV) 
   0   2.0000    -347.796526     -9464.0246 
   1   2.0000     -42.453724     -1155.2245 
   2   2.0000     -37.322967     -1015.6096 
   3   2.0000     -37.322967     -1015.6096 
   4   2.0000     -37.322967     -1015.6096 
   5   2.0000      -4.973223      -135.3283 
   6   2.0000      -3.330768       -90.6348 
   7   2.0000      -3.330768       -90.6348 
   8   2.0000      -3.330768       -90.6348 
   9   2.0000      -0.585621       -15.9355 
  10   2.0000      -0.585621       -15.9355 
  11   2.0000      -0.585621       -15.9355 
  12   2.0000      -0.585621       -15.9355 
  13   2.0000      -0.585621       -15.9355 
  14   2.0000      -0.320407        -8.7187 
  15   0.0000       0.008259         0.2247 
  16   0.0000       0.008260         0.2248 
  17   0.0000       0.008260         0.2248 
  18   0.0000       0.016233         0.4417 
  19   0.0000       0.066474         1.8089 
  20   0.0000       0.066475         1.8089 
  21   0.0000       0.066476         1.8089 
  22   0.0000       0.169907         4.6234 
  23   0.0000       0.231552         6.3008 
  24   0.0000       0.231552         6.3008 
  25   0.0000       0.231552         6.3008 
  26   0.0000       0.231552         6.3009 
  27   0.0000       0.231552         6.3009 
  28   0.0000       0.269548         7.3348 
  29   0.0000       0.269549         7.3348 
  30   0.0000       0.269549         7.3348 
  31   0.0000       0.749315        20.3899 
  32   0.0000       0.834530        22.7087 
  33   0.0000       0.834530        22.7087 
  34   0.0000       0.834530        22.7087 
  35   0.0000       0.834530        22.7087 
  36   0.0000       0.834530        22.7087 
  37   0.0000       1.050886        28.5961 
  38   0.0000       1.050886        28.5961 
  39   0.0000       1.050886        28.5961 
  40   0.0000       1.756509        47.7970 
  41   0.0000       1.756509        47.7970 
  42   0.0000       1.756509        47.7970 
  43   0.0000       1.756509        47.7970 
  44   0.0000       1.756509        47.7970 
  45   0.0000       1.756509        47.7970 
  46   0.0000       1.756509        47.7970 
  47   0.0000       2.902019        78.9679 
  48   0.0000       2.902019        78.9679 
  49   0.0000       2.902019        78.9679 
  50   0.0000       2.902019        78.9679 
  51   0.0000       2.902019        78.9679 
  52   0.0000       4.346271       118.2680 
  53   0.0000       4.449034       121.0644 
  54   0.0000       4.449034       121.0644 
  55   0.0000       4.449034       121.0644 
  56   0.0000       5.084187       138.3478 
  57   0.0000       5.084187       138.3478 
  58   0.0000       5.084187       138.3478 
  59   0.0000       5.084187       138.3478 
  60   0.0000       5.084187       138.3478 
  61   0.0000       5.084187       138.3478 
  62   0.0000       5.084187       138.3478 
  63   0.0000       7.528317       204.8559 
  64   0.0000       7.528317       204.8559 
  65   0.0000       7.528317       204.8559 
  66   0.0000       7.528317       204.8559 
  67   0.0000       7.528317       204.8559 
  68   0.0000       7.528317       204.8559 
  69   0.0000       7.528317       204.8559 
  70   0.0000       7.528317       204.8559 
  71   0.0000       7.528317       204.8559 
  72   0.0000      10.374184       282.2959 
  73   0.0000      10.374184       282.2959 
  74   0.0000      10.374184       282.2959 
  75   0.0000      10.374184       282.2959 
  76   0.0000      10.374184       282.2959 
  77   0.0000      16.111730       438.4225 
  78   0.0000      16.111730       438.4225 
  79   0.0000      16.111730       438.4225 
  80   0.0000      16.111730       438.4225 
  81   0.0000      16.111730       438.4225 
  82   0.0000      16.111730       438.4225 
  83   0.0000      16.111730       438.4225 
  84   0.0000      19.873890       540.7960 
  85   0.0000      19.873890       540.7960 
  86   0.0000      19.873890       540.7960 
  87   0.0000      19.873890       540.7960 
  88   0.0000      19.873890       540.7960 
  89   0.0000      19.873890       540.7960 
  90   0.0000      19.873890       540.7960 
  91   0.0000      19.873890       540.7960 
  92   0.0000      19.873890       540.7960 

                    ********************************
                    * MULLIKEN POPULATION ANALYSIS *
                    ********************************

-----------------------
MULLIKEN ATOMIC CHARGES
-----------------------
   0 Zn:    0.000000
Sum of atomic charges:    0.0000000

--------------------------------
MULLIKEN REDUCED ORBITAL CHARGES
--------------------------------
  0 Zns       :     8.000000  s :     8.000000
      pz      :     4.000000  p :    12.000000
      px      :     4.000000
      py      :     4.000000
      dz2     :     2.000000  d :    10.000000
      dxz     :     2.000000
      dyz     :     2.000000
      dx2y2   :     2.000000
      dxy     :     2.000000
      f0      :     0.000000  f :     0.000000
      f+1     :     0.000000
      f-1     :     0.000000
      f+2     :     0.000000
      f-2     :     0.000000
      f+3     :     0.000000
      f-3     :     0.000000
      g0      :     0.000000  g :     0.000000
      g+1     :     0.000000
      g-1     :     0.000000
      g+2     :     0.000000
      g-2     :     0.000000
      g+3     :     0.000000
      g-3     :     0.000000
      g+4     :     0.000000
      g-4     :     0.000000


                     *******************************
                     * LOEWDIN POPULATION ANALYSIS *
                     *******************************

----------------------
LOEWDIN ATOMIC CHARGES
----------------------
   0 Zn:    0.000000

-------------------------------
LOEWDIN REDUCED ORBITAL CHARGES
-------------------------------
  0 Zns       :     8.000000  s :     8.000000
      pz      :     4.000000  p :    12.000000
      px      :     4.000000
      py      :     4.000000
      dz2     :     2.000000  d :    10.000000
      dxz     :     2.000000
      dyz     :     2.000000
      dx2y2   :     2.000000
      dxy     :     2.000000
      f0      :     0.000000  f :     0.000000
      f+1     :     0.000000
      f-1     :     0.000000
      f+2     :     0.000000
      f-2     :     0.000000
      f+3     :     0.000000
      f-3     :     0.000000
      g0      :     0.000000  g :     0.000000
      g+1     :     0.000000
      g-1     :     0.000000
      g+2     :     0.000000
      g-2     :     0.000000
      g+3     :     0.000000
      g-3     :     0.000000
      g+4     :     0.000000
      g-4     :     0.000000


                      *****************************
                      * MAYER POPULATION ANALYSIS *
                      *****************************

  NA   - Mulliken gross atomic population
  ZA   - Total nuclear charge
  QA   - Mulliken gross atomic charge
  VA   - Mayer's total valence
  BVA  - Mayer's bonded valence
  FA   - Mayer's free valence

  ATOM       NA         ZA         QA         VA         BVA        FA
  0 Zn    30.0000    30.0000     0.0000     0.0000     0.0000     0.0000

  Mayer bond orders larger than 0.100000


--------------------------
ATOM BASIS FOR ELEMENT Zn
--------------------------
 NewGTO Zn
 S 112
    1    5820021.000000000000         0.000008549213
    2     871523.400000000023         0.000066474199
    3     198335.000000000000         0.000349496723
    4      56176.309999999998         0.001473834204
    5      18325.820000000000         0.005338337982
    6       6614.955000000000         0.017127105610
    7       2579.199000000000         0.048940923180
    8       1068.849000000000         0.121793582115
    9        465.104500000000         0.247659270319
   10        210.413000000000         0.358243635673
   11         97.616290000000         0.279817818405
   12         44.380200000000         0.068575012539
   13         21.423080000000        -0.001311093960
   14         10.308910000000         0.001914003862
   15          4.553645000000        -0.000875923310
   16          2.132821000000         0.000374010159
   17          0.929697000000        -0.000140140110
   18          0.192147000000         0.000047571371
   19          0.087595000000        -0.000036427154
   20    5820021.000000000000         0.000000000577
   21     871523.400000000023         0.000000004484
   22     198335.000000000000         0.000000023588
   23      56176.309999999998         0.000000099574
   24      18325.820000000000         0.000000362109
   25       6614.955000000000         0.000001172656
   26       2579.199000000000         0.000003432127
   27       1068.849000000000         0.000009005030
   28        465.104500000000         0.000020546817
   29        210.413000000000         0.000037569482
   30         97.616290000000         0.000042780618
   31         44.380200000000        -0.000009901368
   32         21.423080000000        -0.000114555954
   33         10.308910000000        -0.000109350694
   34          4.553645000000        -0.000019539989
   35          2.132821000000         0.000000468815
   36          0.929697000000        -0.000000461355
   37    5820021.000000000000         0.000000000021
   38     871523.400000000023         0.000000000166
   39     198335.000000000000         0.000000000875
   40      56176.309999999998         0.000000003697
   41      18325.820000000000         0.000000013430
   42       6614.955000000000         0.000000043618
   43       2579.199000000000         0.000000127765
   44       1068.849000000000         0.000000338289
   45        465.104500000000         0.000000780502
   46        210.413000000000         0.000001478841
   47         97.616290000000         0.000001767589
   48         44.380200000000        -0.000000431563
   49         21.423080000000        -0.000006978715
   50         10.308910000000        -0.000009876115
   51          4.553645000000         0.000003509276
   52          2.132821000000         0.000015656911
   53          0.929697000000         0.000008088489
   54    5820021.000000000000        -0.000000000048
   55     871523.400000000023        -0.000000000377
   56     198335.000000000000        -0.000000001982
   57      56176.309999999998        -0.000000008380
   58      18325.820000000000        -0.000000030435
   59       6614.955000000000        -0.000000098909
   60       2579.199000000000        -0.000000289646
   61       1068.849000000000        -0.000000768144
   62        465.104500000000        -0.000001773705
   63        210.413000000000        -0.000003378613
   64         97.616290000000        -0.000004056970
   65         44.380200000000         0.000000980011
   66         21.423080000000         0.000016923336
   67         10.308910000000         0.000025015297
   68          4.553645000000        -0.000010858548
   69          2.132821000000        -0.000052211730
   70          0.929697000000        -0.000053914928
   71          0.192147000000         0.000075639908
   72          0.087595000000         0.000138260486
   73    5820021.000000000000         0.000000000020
   74     871523.400000000023         0.000000000160
   75     198335.000000000000         0.000000000813
   76      56176.309999999998         0.000000003604
   77      18325.820000000000         0.000000012319
   78       6614.955000000000         0.000000043123
   79       2579.199000000000         0.000000115344
   80       1068.849000000000         0.000000341652
   81        465.104500000000         0.000000686104
   82        210.413000000000         0.000001583069
   83         97.616290000000         0.000001320496
   84         44.380200000000         0.000000605818
   85         21.423080000000        -0.000009779261
   86         10.308910000000        -0.000007715645
   87          4.553645000000         0.000000656119
   88          2.132821000000         0.000050062606
   89          0.929697000000        -0.000030258274
   90          0.192147000000        -0.000062677903
   91          0.087595000000         0.000051348789
   92    5820021.000000000000        -0.000000000093
   93     871523.400000000023        -0.000000000724
   94     198335.000000000000        -0.000000003783
   95      56176.309999999998        -0.000000016126
   96      18325.820000000000        -0.000000057983
   97       6614.955000000000        -0.000000190835
   98       2579.199000000000        -0.000000550881
   99       1068.849000000000        -0.000001489957
  100        465.104500000000        -0.000003372869
  101        210.413000000000        -0.000006676748
  102         97.616290000000        -0.000007655311
  103         44.380200000000         0.000000851793
  104         21.423080000000         0.000038387783
  105         10.308910000000         0.000068220560
  106          4.553645000000        -0.000103882594
  107          2.132821000000        -0.000182826857
  108          0.929697000000         0.000321398794
  109          0.192147000000        -0.000238844730
  110          0.087595000000         0.000069306027
  111          0.037702000000        -0.000145042769
  112          0.016230000000         0.000048016018
 S 111
    1    5820021.000000000000        -0.000000001713
    2     871523.400000000023        -0.000000013318
    3     198335.000000000000        -0.000000070021
    4      56176.309999999998        -0.000000295280
    5      18325.820000000000        -0.000001069525
    6       6614.955000000000        -0.000003431381
    7       2579.199000000000        -0.000009805214
    8       1068.849000000000        -0.000024401096
    9        465.104500000000        -0.000049618031
   10        210.413000000000        -0.000071773384
   11         97.616290000000        -0.000056060931
   12         44.380200000000        -0.000013738864
   13         21.423080000000         0.000000262675
   14         10.308910000000        -0.000000383467
   15          4.553645000000         0.000000175489
   16    5820021.000000000000         0.000002639557
   17     871523.400000000023         0.000020522980
   18     198335.000000000000         0.000107963700
   19      56176.309999999998         0.000455763982
   20      18325.820000000000         0.001657417188
   21       6614.955000000000         0.005367388313
   22       2579.199000000000         0.015709259731
   23       1068.849000000000         0.041217104594
   24        465.104500000000         0.094045251628
   25        210.413000000000         0.171960040137
   26         97.616290000000         0.195812035490
   27         44.380200000000        -0.045319750973
   28         21.423080000000        -0.524336381564
   29         10.308910000000        -0.500511280681
   30          4.553645000000        -0.089436879240
   31          2.132821000000         0.002145820758
   32          0.929697000000        -0.002111678779
   33          0.192147000000         0.000413313011
   34          0.087595000000        -0.000320909212
   35    5820021.000000000000         0.000000000077
   36     871523.400000000023         0.000000000602
   37     198335.000000000000         0.000000003165
   38      56176.309999999998         0.000000013376
   39      18325.820000000000         0.000000048597
   40       6614.955000000000         0.000000157828
   41       2579.199000000000         0.000000462310
   42       1068.849000000000         0.000001224080
   43        465.104500000000         0.000002824208
   44        210.413000000000         0.000005351113
   45         97.616290000000         0.000006395933
   46         44.380200000000        -0.000001561590
   47         21.423080000000        -0.000025252129
   48         10.308910000000        -0.000035736224
   49          4.553645000000         0.000012698136
   50          2.132821000000         0.000056653740
   51          0.929697000000         0.000029267787
   52          0.192147000000         0.000001112734
   53    5820021.000000000000        -0.000000000989
   54     871523.400000000023        -0.000000007694
   55     198335.000000000000        -0.000000040433
   56      56176.309999999998        -0.000000170958
   57      18325.820000000000        -0.000000620901
   58       6614.955000000000        -0.000002017853
   59       2579.199000000000        -0.000005909078
   60       1068.849000000000        -0.000015670922
   61        465.104500000000        -0.000036185406
   62        210.413000000000        -0.000068927156
   63         97.616290000000        -0.000082766350
   64         44.380200000000         0.000019993220
   65         21.423080000000         0.000345253373
   66         10.308910000000         0.000510337666
   67          4.553645000000        -0.000221525502
   68          2.132821000000        -0.001065172736
   69          0.929697000000        -0.001099919721
   70          0.192147000000         0.001543131539
   71          0.087595000000         0.002820655436
   72    5820021.000000000000         0.000000000101
   73     871523.400000000023         0.000000000809
   74     198335.000000000000         0.000000004101
   75      56176.309999999998         0.000000018191
   76      18325.820000000000         0.000000062174
   77       6614.955000000000         0.000000217634
   78       2579.199000000000         0.000000582123
   79       1068.849000000000         0.000001724271
   80        465.104500000000         0.000003462669
   81        210.413000000000         0.000007989530
   82         97.616290000000         0.000006664357
   83         44.380200000000         0.000003057479
   84         21.423080000000        -0.000049354566
   85         10.308910000000        -0.000038939784
   86          4.553645000000         0.000003311341
   87          2.132821000000         0.000252658993
   88          0.929697000000        -0.000152709290
   89          0.192147000000        -0.000316326634
   90          0.087595000000         0.000259150176
   91    5820021.000000000000        -0.000000002102
   92     871523.400000000023        -0.000000016420
   93     198335.000000000000        -0.000000085771
   94      56176.309999999998        -0.000000365591
   95      18325.820000000000        -0.000001314545
   96       6614.955000000000        -0.000004326429
   97       2579.199000000000        -0.000012489047
   98       1068.849000000000        -0.000033778870
   99        465.104500000000        -0.000076466438
  100        210.413000000000        -0.000151368805
  101         97.616290000000        -0.000173553847
  102         44.380200000000         0.000019311024
  103         21.423080000000         0.000870290863
  104         10.308910000000         0.001546630887
  105          4.553645000000        -0.002355126191
  106          2.132821000000        -0.004144874548
  107          0.929697000000         0.007286444158
  108          0.192147000000        -0.005414857873
  109          0.087595000000         0.001571239553
  110          0.037702000000        -0.002671340479
  111          0.016230000000         0.000857609255
 S 110
    1    5820021.000000000000        -0.000000000176
    2     871523.400000000023        -0.000000001369
    3     198335.000000000000        -0.000000007197
    4      56176.309999999998        -0.000000030351
    5      18325.820000000000        -0.000000109933
    6       6614.955000000000        -0.000000352699
    7       2579.199000000000        -0.000001007842
    8       1068.849000000000        -0.000002508099
    9        465.104500000000        -0.000005100054
   10        210.413000000000        -0.000007377321
   11         97.616290000000        -0.000005762296
   12         44.380200000000        -0.000001412167
   13         21.423080000000         0.000000026999
   14         10.308910000000        -0.000000039415
   15    5820021.000000000000         0.000000003169
   16     871523.400000000023         0.000000024640
   17     198335.000000000000         0.000000129620
   18      56176.309999999998         0.000000547183
   19      18325.820000000000         0.000001989870
   20       6614.955000000000         0.000006444006
   21       2579.199000000000         0.000018860302
   22       1068.849000000000         0.000049484640
   23        465.104500000000         0.000112909323
   24        210.413000000000         0.000206452654
   25         97.616290000000         0.000235089003
   26         44.380200000000        -0.000054410216
   27         21.423080000000        -0.000629510422
   28         10.308910000000        -0.000600906362
   29          4.553645000000        -0.000107376580
   30          2.132821000000         0.000002576240
   31          0.929697000000        -0.000002535250
   32          0.192147000000         0.000000496217
   33    5820021.000000000000         0.000000995149
   34     871523.400000000023         0.000007742137
   35     198335.000000000000         0.000040696790
   36      56176.309999999998         0.000172013084
   37      18325.820000000000         0.000624963238
   38       6614.955000000000         0.002029692513
   39       2579.199000000000         0.005945382431
   40       1068.849000000000         0.015741872408
   41        465.104500000000         0.036319789719
   42        210.413000000000         0.068816206679
   43         97.616290000000         0.082252771014
   44         44.380200000000        -0.020082309523
   45         21.423080000000        -0.324746608583
   46         10.308910000000        -0.459573832738
   47          4.553645000000         0.163300160147
   48          2.132821000000         0.728576596445
   49          0.929697000000         0.376388644534
   50          0.192147000000         0.014309943513
   51          0.087595000000        -0.006660831682
   52    5820021.000000000000         0.000000001466
   53     871523.400000000023         0.000000011408
   54     198335.000000000000         0.000000059949
   55      56176.309999999998         0.000000253476
   56      18325.820000000000         0.000000920599
   57       6614.955000000000         0.000002991834
   58       2579.199000000000         0.000008761283
   59       1068.849000000000         0.000023234992
   60        465.104500000000         0.000053651446
   61        210.413000000000         0.000102197046
   62         97.616290000000         0.000122716169
   63         44.380200000000        -0.000029643585
   64         21.423080000000        -0.000511900927
   65         10.308910000000        -0.000756668421
   66          4.553645000000         0.000328451853
   67          2.132821000000         0.001579312336
   68          0.929697000000         0.001630831061
   69          0.192147000000        -0.002287973203
   70          0.087595000000        -0.004182134762
   71    5820021.000000000000        -0.000000000848
   72     871523.400000000023        -0.000000006769
   73     198335.000000000000        -0.000000034299
   74      56176.309999999998        -0.000000152135
   75      18325.820000000000        -0.000000519989
   76       6614.955000000000        -0.000001820160
   77       2579.199000000000        -0.000004868530
   78       1068.849000000000        -0.000014420764
   79        465.104500000000        -0.000028959681
   80        210.413000000000        -0.000066819621
   81         97.616290000000        -0.000055736669
   82         44.380200000000        -0.000025570917
   83         21.423080000000         0.000412771890
   84         10.308910000000         0.000325668921
   85          4.553645000000        -0.000027694067
   86          2.132821000000        -0.002113087775
   87          0.929697000000         0.001277168604
   88          0.192147000000         0.002645565610
   89          0.087595000000        -0.002167376125
   90    5820021.000000000000         0.000000002491
   91     871523.400000000023         0.000000019466
   92     198335.000000000000         0.000000101683
   93      56176.309999999998         0.000000433411
   94      18325.820000000000         0.000001558405
   95       6614.955000000000         0.000005129021
   96       2579.199000000000         0.000014805880
   97       1068.849000000000         0.000040045160
   98        465.104500000000         0.000090651663
   99        210.413000000000         0.000179449105
  100         97.616290000000         0.000205749675
  101         44.380200000000        -0.000022893395
  102         21.423080000000        -0.001031737791
  103         10.308910000000        -0.001833545085
  104          4.553645000000         0.002792023674
  105          2.132821000000         0.004913786747
  106          0.929697000000        -0.008638146298
  107          0.192147000000         0.006419363612
  108          0.087595000000        -0.001862718884
  109          0.037702000000         0.007472389900
  110          0.016230000000        -0.002198149722
 S 113
    1    5820021.000000000000        -0.000000003863
    2     871523.400000000023        -0.000000030039
    3     198335.000000000000        -0.000000157934
    4      56176.309999999998        -0.000000666011
    5      18325.820000000000        -0.000002412341
    6       6614.955000000000        -0.000007739566
    7       2579.199000000000        -0.000022115910
    8       1068.849000000000        -0.000055037292
    9        465.104500000000        -0.000111914728
   10        210.413000000000        -0.000161886688
   11         97.616290000000        -0.000126446852
   12         44.380200000000        -0.000030988357
   13         21.423080000000         0.000000592470
   14         10.308910000000        -0.000000864919
   15          4.553645000000         0.000000395821
   16          2.132821000000        -0.000000169011
   17    5820021.000000000000         0.000000010068
   18     871523.400000000023         0.000000078278
   19     198335.000000000000         0.000000411793
   20      56176.309999999998         0.000001738364
   21      18325.820000000000         0.000006321681
   22       6614.955000000000         0.000020472164
   23       2579.199000000000         0.000059917883
   24       1068.849000000000         0.000157209296
   25        465.104500000000         0.000358705152
   26        210.413000000000         0.000655885877
   27         97.616290000000         0.000746861588
   28         44.380200000000        -0.000172857512
   29         21.423080000000        -0.001999911301
   30         10.308910000000        -0.001909038170
   31          4.553645000000        -0.000341128008
   32          2.132821000000         0.000008184538
   33          0.929697000000        -0.000008054315
   34          0.192147000000         0.000001576449
   35          0.087595000000        -0.000001224004
   36    5820021.000000000000        -0.000000015206
   37     871523.400000000023        -0.000000118300
   38     198335.000000000000        -0.000000621845
   39      56176.309999999998        -0.000002628353
   40      18325.820000000000        -0.000009549412
   41       6614.955000000000        -0.000031013615
   42       2579.199000000000        -0.000090845189
   43       1068.849000000000        -0.000240535137
   44        465.104500000000        -0.000554964834
   45        210.413000000000        -0.001051508696
   46         97.616290000000        -0.001256818824
   47         44.380200000000         0.000306856831
   48         21.423080000000         0.004962114294
   49         10.308910000000         0.007022268514
   50          4.553645000000        -0.002495219465
   51          2.132821000000        -0.011132619242
   52          0.929697000000        -0.005751202395
   53          0.192147000000        -0.000218655325
   54          0.087595000000         0.000101777223
   55    5820021.000000000000         0.000000213957
   56     871523.400000000023         0.000001664704
   57     198335.000000000000         0.000008748326
   58      56176.309999999998         0.000036989553
   59      18325.820000000000         0.000134342049
   60       6614.955000000000         0.000436595179
   61       2579.199000000000         0.001278524903
   62       1068.849000000000         0.003390658153
   63        465.104500000000         0.007829299523
   64        210.413000000000         0.014913508364
   65         97.616290000000         0.017907842599
   66         44.380200000000        -0.004325857399
   67         21.423080000000        -0.074701168357
   68         10.308910000000        -0.110419833357
   69          4.553645000000         0.047930636246
   70          2.132821000000         0.230467401918
   71          0.929697000000         0.237985475737
   72          0.192147000000        -0.333881543011
   73          0.087595000000        -0.610294563571
   74    5820021.000000000000         0.000000020291
   75     871523.400000000023         0.000000161885
   76     198335.000000000000         0.000000820292
   77      56176.309999999998         0.000003638433
   78      18325.820000000000         0.000012436003
   79       6614.955000000000         0.000043530743
   80       2579.199000000000         0.000116435196
   81       1068.849000000000         0.000344885294
   82        465.104500000000         0.000692596336
   83        210.413000000000         0.001598050206
   84         97.616290000000         0.001332991630
   85         44.380200000000         0.000611551033
   86         21.423080000000        -0.009871803957
   87         10.308910000000        -0.007788659609
   88          4.553645000000         0.000662328041
   89          2.132821000000         0.050536358641
   90          0.929697000000        -0.030544614086
   91          0.192147000000        -0.063271035914
   92          0.087595000000         0.051834712447
   93    5820021.000000000000        -0.000000002801
   94     871523.400000000023        -0.000000021887
   95     198335.000000000000        -0.000000114325
   96      56176.309999999998        -0.000000487295
   97      18325.820000000000        -0.000001752153
   98       6614.955000000000        -0.000005766684
   99       2579.199000000000        -0.000016646612
  100       1068.849000000000        -0.000045023752
  101        465.104500000000        -0.000101921881
  102        210.413000000000        -0.000201759015
  103         97.616290000000        -0.000231329389
  104         44.380200000000         0.000025739604
  105         21.423080000000         0.001160008018
  106         10.308910000000         0.002061499557
  107          4.553645000000        -0.003139140463
  108          2.132821000000        -0.005524690550
  109          0.929697000000         0.009712079030
  110          0.192147000000        -0.007217447421
  111          0.087595000000         0.002094300373
  112          0.037702000000        -0.188449782456
  113          0.016230000000        -0.007736776754
 S 114
    1    5820021.000000000000         0.000000030187
    2     871523.400000000023         0.000000234718
    3     198335.000000000000         0.000001234061
    4      56176.309999999998         0.000005204059
    5      18325.820000000000         0.000018849494
    6       6614.955000000000         0.000060475240
    7       2579.199000000000         0.000172808770
    8       1068.849000000000         0.000430049083
    9        465.104500000000         0.000874476637
   10        210.413000000000         0.001264946348
   11         97.616290000000         0.000988027399
   12         44.380200000000         0.000242136086
   13         21.423080000000        -0.000004629429
   14         10.308910000000         0.000006758284
   15          4.553645000000        -0.000003092856
   16          2.132821000000         0.000001320617
   17          0.929697000000        -0.000000494830
   18    5820021.000000000000        -0.000000064714
   19     871523.400000000023        -0.000000503165
   20     198335.000000000000        -0.000002646961
   21      56176.309999999998        -0.000011174028
   22      18325.820000000000        -0.000040635124
   23       6614.955000000000        -0.000131592994
   24       2579.199000000000        -0.000385146070
   25       1068.849000000000        -0.001010525393
   26        465.104500000000        -0.002305720302
   27        210.413000000000        -0.004215967833
   28         97.616290000000        -0.004800750467
   29         44.380200000000         0.001111110536
   30         21.423080000000         0.012855226811
   31         10.308910000000         0.012271103553
   32          4.553645000000         0.002192736206
   33          2.132821000000        -0.000052609381
   34          0.929697000000         0.000051772318
   35          0.192147000000        -0.000010133252
   36          0.087595000000         0.000007867775
   37    5820021.000000000000         0.000000108898
   38     871523.400000000023         0.000000847216
   39     198335.000000000000         0.000004453418
   40      56176.309999999998         0.000018823256
   41      18325.820000000000         0.000068389233
   42       6614.955000000000         0.000222107646
   43       2579.199000000000         0.000650598496
   44       1068.849000000000         0.001722620643
   45        465.104500000000         0.003974445853
   46        210.413000000000         0.007530503051
   47         97.616290000000         0.009000855655
   48         44.380200000000        -0.002197591242
   49         21.423080000000        -0.035536764443
   50         10.308910000000        -0.050290800909
   51          4.553645000000         0.017869807324
   52          2.132821000000         0.079727560510
   53          0.929697000000         0.041187911578
   54          0.192147000000         0.001565925797
   55          0.087595000000        -0.000728889541
   56    5820021.000000000000        -0.000000038668
   57     871523.400000000023        -0.000000300856
   58     198335.000000000000        -0.000001581054
   59      56176.309999999998        -0.000006684993
   60      18325.820000000000        -0.000024279170
   61       6614.955000000000        -0.000078904324
   62       2579.199000000000        -0.000231063346
   63       1068.849000000000        -0.000612781822
   64        465.104500000000        -0.001414961995
   65        210.413000000000        -0.002695266350
   66         97.616290000000        -0.003236421933
   67         44.380200000000         0.000781797120
   68         21.423080000000         0.013500481609
   69         10.308910000000         0.019955791352
   70          4.553645000000        -0.008662336713
   71          2.132821000000        -0.041651569707
   72          0.929697000000        -0.043010284967
   73          0.192147000000         0.060341246732
   74          0.087595000000         0.110296407844
   75    5820021.000000000000         0.000000047591
   76     871523.400000000023         0.000000379683
   77     198335.000000000000         0.000001923909
   78      56176.309999999998         0.000008533558
   79      18325.820000000000         0.000029167325
   80       6614.955000000000         0.000102096734
   81       2579.199000000000         0.000273086386
   82       1068.849000000000         0.000808891829
   83        465.104500000000         0.001624411148
   84        210.413000000000         0.003748057038
   85         97.616290000000         0.003126390297
   86         44.380200000000         0.001434327998
   87         21.423080000000        -0.023153267744
   88         10.308910000000        -0.018267473915
   89          4.553645000000         0.001553420076
   90          2.132821000000         0.118527661964
   91          0.929697000000        -0.071639148340
   92          0.192147000000        -0.148395495016
   93          0.087595000000         0.121572812924
   94    5820021.000000000000        -0.000000029020
   95     871523.400000000023        -0.000000226753
   96     198335.000000000000        -0.000001184446
   97      56176.309999999998        -0.000005048559
   98      18325.820000000000        -0.000018152969
   99       6614.955000000000        -0.000059745027
  100       2579.199000000000        -0.000172465212
  101       1068.849000000000        -0.000466463133
  102        465.104500000000        -0.001055949300
  103        210.413000000000        -0.002090299832
  104         97.616290000000        -0.002396660111
  105         44.380200000000         0.000266672049
  106         21.423080000000         0.012018122550
  107         10.308910000000         0.021357916439
  108          4.553645000000        -0.032522684506
  109          2.132821000000        -0.057237887202
  110          0.929697000000         0.100620818311
  111          0.192147000000        -0.074775489714
  112          0.087595000000         0.021697745315
  113          0.037702000000        -1.644194111230
  114          0.016230000000         2.063569994511
 S 116
    1    5820021.000000000000         0.000000230210
    2     871523.400000000023         0.000001789994
    3     198335.000000000000         0.000009411126
    4      56176.309999999998         0.000039686895
    5      18325.820000000000         0.000143748911
    6       6614.955000000000         0.000461192750
    7       2579.199000000000         0.001317864179
    8       1068.849000000000         0.003279615271
    9        465.104500000000         0.006668882800
   10        210.413000000000         0.009646660176
   11         97.616290000000         0.007534837012
   12         44.380200000000         0.001846564116
   13         21.423080000000        -0.000035304683
   14         10.308910000000         0.000051539631
   15          4.553645000000        -0.000023586559
   16          2.132821000000         0.000010071216
   17          0.929697000000        -0.000003773644
   18          0.192147000000         0.000001280985
   19          0.087595000000        -0.000000980898
   20    5820021.000000000000        -0.000000499823
   21     871523.400000000023        -0.000003886202
   22     198335.000000000000        -0.000020443849
   23      56176.309999999998        -0.000086302802
   24      18325.820000000000        -0.000313846099
   25       6614.955000000000        -0.001016360815
   26       2579.199000000000        -0.002974682490
   27       1068.849000000000        -0.007804810756
   28        465.104500000000        -0.017808271559
   29        210.413000000000        -0.032562102170
   30         97.616290000000        -0.037078681191
   31         44.380200000000         0.008581681886
   32         21.423080000000         0.099287571778
   33         10.308910000000         0.094776085455
   34          4.553645000000         0.016935636891
   35          2.132821000000        -0.000406329486
   36          0.929697000000         0.000399864411
   37          0.192147000000        -0.000078264348
   38          0.087595000000         0.000060766900
   39    5820021.000000000000         0.000000868234
   40     871523.400000000023         0.000006754751
   41     198335.000000000000         0.000035506566
   42      56176.309999999998         0.000150075572
   43      18325.820000000000         0.000545259191
   44       6614.955000000000         0.001770837756
   45       2579.199000000000         0.005187144168
   46       1068.849000000000         0.013734248822
   47        465.104500000000         0.031687782509
   48        210.413000000000         0.060039802192
   49         97.616290000000         0.071762748046
   50         44.380200000000        -0.017521132732
   51         21.423080000000        -0.283330382227
   52         10.308910000000        -0.400962554341
   53          4.553645000000         0.142473841356
   54          2.132821000000         0.635658325896
   55          0.929697000000         0.328386303977
   56          0.192147000000         0.012484939513
   57          0.087595000000        -0.005811349330
   58    5820021.000000000000        -0.000000770920
   59     871523.400000000023        -0.000005998192
   60     198335.000000000000        -0.000031521600
   61      56176.309999999998        -0.000133279208
   62      18325.820000000000        -0.000484055638
   63       6614.955000000000        -0.001573121439
   64       2579.199000000000        -0.004606727310
   65       1068.849000000000        -0.012217077255
   66        465.104500000000        -0.028210203683
   67        210.413000000000        -0.053735727871
   68         97.616290000000        -0.064524787405
   69         44.380200000000         0.015586747956
   70         21.423080000000         0.269160116889
   71         10.308910000000         0.397860112589
   72          4.553645000000        -0.172701658331
   73          2.132821000000        -0.830410476883
   74          0.929697000000        -0.857499285166
   75          0.192147000000         1.203027972924
   76          0.087595000000         2.198987775961
   77    5820021.000000000000         0.000000267950
   78     871523.400000000023         0.000002137738
   79     198335.000000000000         0.000010832227
   80      56176.309999999998         0.000048046681
   81      18325.820000000000         0.000164221442
   82       6614.955000000000         0.000574837526
   83       2579.199000000000         0.001537564391
   84       1068.849000000000         0.004554321772
   85        465.104500000000         0.009145958455
   86        210.413000000000         0.021102769449
   87         97.616290000000         0.017602585279
   88         44.380200000000         0.008075729039
   89         21.423080000000        -0.130360361719
   90         10.308910000000        -0.102851767347
   91          4.553645000000         0.008746255832
   92          2.132821000000         0.667348948683
   93          0.929697000000        -0.403351500713
   94          0.192147000000        -0.835514477783
   95          0.087595000000         0.684494130308
   96    5820021.000000000000        -0.000000184122
   97     871523.400000000023        -0.000001438648
   98     198335.000000000000        -0.000007514773
   99      56176.309999999998        -0.000032030825
  100      18325.820000000000        -0.000115172375
  101       6614.955000000000        -0.000379055179
  102       2579.199000000000        -0.001094213770
  103       1068.849000000000        -0.002959497618
  104        465.104500000000        -0.006699520746
  105        210.413000000000        -0.013262007085
  106         97.616290000000        -0.015205724504
  107         44.380200000000         0.001691913546
  108         21.423080000000         0.076249552318
  109         10.308910000000         0.135506320570
  110          4.553645000000        -0.206341724629
  111          2.132821000000        -0.363148508143
  112          0.929697000000         0.638393585862
  113          0.192147000000        -0.474416664604
  114          0.087595000000         0.137662381099
  115          0.037702000000        -4.713330345320
  116          0.016230000000         2.084661977937
 S 116
    1    5820021.000000000000        -0.000000272266
    2     871523.400000000023        -0.000002116995
    3     198335.000000000000        -0.000011130374
    4      56176.309999999998        -0.000046936994
    5      18325.820000000000        -0.000170009310
    6       6614.955000000000        -0.000545444559
    7       2579.199000000000        -0.001558614799
    8       1068.849000000000        -0.003878743333
    9        465.104500000000        -0.007887170465
   10        210.413000000000        -0.011408935425
   11         97.616290000000        -0.008911319290
   12         44.380200000000        -0.002183898922
   13         21.423080000000         0.000041754228
   14         10.308910000000        -0.000060955016
   15          4.553645000000         0.000027895408
   16          2.132821000000        -0.000011911050
   17          0.929697000000         0.000004463023
   18          0.192147000000        -0.000001514999
   19          0.087595000000         0.000001160091
   20    5820021.000000000000         0.000000588225
   21     871523.400000000023         0.000004573540
   22     198335.000000000000         0.000024059681
   23      56176.309999999998         0.000101566878
   24      18325.820000000000         0.000369354964
   25       6614.955000000000         0.001196121008
   26       2579.199000000000         0.003500804207
   27       1068.849000000000         0.009185220415
   28        465.104500000000         0.020957958442
   29        210.413000000000         0.038321247617
   30         97.616290000000         0.043636658217
   31         44.380200000000        -0.010099494031
   32         21.423080000000        -0.116848218321
   33         10.308910000000        -0.111538801146
   34          4.553645000000        -0.019930983923
   35          2.132821000000         0.000478195565
   36          0.929697000000        -0.000470587035
   37          0.192147000000         0.000092106691
   38          0.087595000000        -0.000071514530
   39    5820021.000000000000        -0.000001028891
   40     871523.400000000023        -0.000008004645
   41     198335.000000000000        -0.000042076670
   42      56176.309999999998        -0.000177845424
   43      18325.820000000000        -0.000646153472
   44       6614.955000000000        -0.002098512017
   45       2579.199000000000        -0.006146968765
   46       1068.849000000000        -0.016275622151
   47        465.104500000000        -0.037551261929
   48        210.413000000000        -0.071149514410
   49         97.616290000000        -0.085041663860
   50         44.380200000000         0.020763227730
   51         21.423080000000         0.335757587089
   52         10.308910000000         0.475156312925
   53          4.553645000000        -0.168837075717
   54          2.132821000000        -0.753279983737
   55          0.929697000000        -0.389150616993
   56          0.192147000000        -0.014795141745
   57          0.087595000000         0.006886676302
   58    5820021.000000000000         0.000000964782
   59     871523.400000000023         0.000007506547
   60     198335.000000000000         0.000039448283
   61      56176.309999999998         0.000166794707
   62      18325.820000000000         0.000605780297
   63       6614.955000000000         0.001968711649
   64       2579.199000000000         0.005765173301
   65       1068.849000000000         0.015289285184
   66        465.104500000000         0.035304176294
   67        210.413000000000         0.067248561244
   68         97.616290000000         0.080750727485
   69         44.380200000000        -0.019506321326
   70         21.423080000000        -0.336845360102
   71         10.308910000000        -0.497909327891
   72          4.553645000000         0.216130654732
   73          2.132821000000         1.039232406908
   74          0.929697000000         1.073133192382
   75          0.192147000000        -1.505551399800
   76          0.087595000000        -2.751963544285
   77    5820021.000000000000        -0.000001198190
   78     871523.400000000023        -0.000009559293
   79     198335.000000000000        -0.000048438322
   80      56176.309999999998        -0.000214849684
   81      18325.820000000000        -0.000734346762
   82       6614.955000000000        -0.002570493047
   83       2579.199000000000        -0.006875505514
   84       1068.849000000000        -0.020365497955
   85        465.104500000000        -0.040897856482
   86        210.413000000000        -0.094364963556
   87         97.616290000000        -0.078713238199
   88         44.380200000000        -0.036112126338
   89         21.423080000000         0.582930634408
   90         10.308910000000         0.459920831753
   91          4.553645000000        -0.039110511768
   92          2.132821000000        -2.984175104278
   93          0.929697000000         1.803661351496
   94          0.192147000000         3.736158585077
   95          0.087595000000        -3.060842976857
   96    5820021.000000000000         0.000000658502
   97     871523.400000000023         0.000005145258
   98     198335.000000000000         0.000026876232
   99      56176.309999999998         0.000114556739
  100      18325.820000000000         0.000411908577
  101       6614.955000000000         0.001355672998
  102       2579.199000000000         0.003913404023
  103       1068.849000000000         0.010584503866
  104        465.104500000000         0.023960520465
  105        210.413000000000         0.047430943824
  106         97.616290000000         0.054382557640
  107         44.380200000000        -0.006051049123
  108         21.423080000000        -0.272702933230
  109         10.308910000000        -0.484631974448
  110          4.553645000000         0.737971461385
  111          2.132821000000         1.298783538501
  112          0.929697000000        -2.283184597513
  113          0.192147000000         1.696728860402
  114          0.087595000000        -0.492343023401
  115          0.037702000000         4.219856515542
  116          0.016230000000        -1.338853839681
 S 115
    1    5820021.000000000000         0.000000170573
    2     871523.400000000023         0.000001326286
    3     198335.000000000000         0.000006973120
    4      56176.309999999998         0.000029405778
    5      18325.820000000000         0.000106509933
    6       6614.955000000000         0.000341718131
    7       2579.199000000000         0.000976463926
    8       1068.849000000000         0.002430012178
    9        465.104500000000         0.004941270570
   10        210.413000000000         0.007147637685
   11         97.616290000000         0.005582894390
   12         44.380200000000         0.001368201121
   13         21.423080000000        -0.000026158803
   14         10.308910000000         0.000038187995
   15          4.553645000000        -0.000017476326
   16          2.132821000000         0.000007462210
   17          0.929697000000        -0.000002796060
   18          0.192147000000         0.000000949139
   19    5820021.000000000000        -0.000000376670
   20     871523.400000000023        -0.000002928668
   21     198335.000000000000        -0.000015406623
   22      56176.309999999998        -0.000065038377
   23      18325.820000000000        -0.000236516548
   24       6614.955000000000        -0.000765936401
   25       2579.199000000000        -0.002241740890
   26       1068.849000000000        -0.005881758297
   27        465.104500000000        -0.013420434174
   28        210.413000000000        -0.024539020942
   29         97.616290000000        -0.027942745511
   30         44.380200000000         0.006467213646
   31         21.423080000000         0.074823787186
   32         10.308910000000         0.071423900508
   33          4.553645000000         0.012762810772
   34          2.132821000000        -0.000306212655
   35          0.929697000000         0.000301340531
   36          0.192147000000        -0.000058980544
   37          0.087595000000         0.000045794348
   38    5820021.000000000000         0.000000650039
   39     871523.400000000023         0.000005057219
   40     198335.000000000000         0.000026583433
   41      56176.309999999998         0.000112360172
   42      18325.820000000000         0.000408230438
   43       6614.955000000000         0.001325809607
   44       2579.199000000000         0.003883566154
   45       1068.849000000000         0.010282703187
   46        465.104500000000         0.023724345353
   47        210.413000000000         0.044951236386
   48         97.616290000000         0.053728095919
   49         44.380200000000        -0.013117907628
   50         21.423080000000        -0.212126797921
   51         10.308910000000        -0.300196901123
   52          4.553645000000         0.106668827807
   53          2.132821000000         0.475911422504
   54          0.929697000000         0.245859743654
   55          0.192147000000         0.009347357033
   56          0.087595000000        -0.004350902700
   57    5820021.000000000000        -0.000000611646
   58     871523.400000000023        -0.000004758950
   59     198335.000000000000        -0.000025009155
   60      56176.309999999998        -0.000105743375
   61      18325.820000000000        -0.000384048475
   62       6614.955000000000        -0.001248110431
   63       2579.199000000000        -0.003654965386
   64       1068.849000000000        -0.009692997105
   65        465.104500000000        -0.022381901738
   66        210.413000000000        -0.042633785795
   67         97.616290000000        -0.051193797380
   68         44.380200000000         0.012366485017
   69         21.423080000000         0.213550931990
   70         10.308910000000         0.315661171600
   71          4.553645000000        -0.137021043531
   72          2.132821000000        -0.658845498072
   73          0.929697000000        -0.680337687636
   74          0.192147000000         0.954479243797
   75          0.087595000000         1.744671143777
   76    5820021.000000000000         0.000000392132
   77     871523.400000000023         0.000003128475
   78     198335.000000000000         0.000015852436
   79      56176.309999999998         0.000070313973
   80      18325.820000000000         0.000240330064
   81       6614.955000000000         0.000841246657
   82       2579.199000000000         0.002250150426
   83       1068.849000000000         0.006665027584
   84        465.104500000000         0.013384663717
   85        210.413000000000         0.030882872907
   86         97.616290000000         0.025760524243
   87         44.380200000000         0.011818435212
   88         21.423080000000        -0.190776025525
   89         10.308910000000        -0.150518540559
   90          4.553645000000         0.012799718441
   91          2.132821000000         0.976632608172
   92          0.929697000000        -0.590285230732
   93          0.192147000000        -1.222734650611
   94          0.087595000000         1.001723744498
   95    5820021.000000000000        -0.000001204805
   96     871523.400000000023        -0.000009413844
   97     198335.000000000000        -0.000049173173
   98      56176.309999999998        -0.000209594794
   99      18325.820000000000        -0.000753634352
  100       6614.955000000000        -0.002480360443
  101       2579.199000000000        -0.007160024985
  102       1068.849000000000        -0.019365573216
  103        465.104500000000        -0.043838541631
  104        210.413000000000        -0.086780393958
  105         97.616290000000        -0.099499174927
  106         44.380200000000         0.011071093771
  107         21.423080000000         0.498941536290
  108         10.308910000000         0.886690212688
  109          4.553645000000        -1.350204085892
  110          2.132821000000        -2.376274601571
  111          0.929697000000         4.177350119504
  112          0.192147000000        -3.104361563883
  113          0.087595000000         0.900798468018
  114          0.037702000000        -2.109113879633
  115          0.016230000000         0.649948154498
 P 77
    1      24411.980000000000         0.000040998330
    2       5778.518000000000         0.000360985294
    3       1876.862000000000         0.002087914944
    4        718.236100000000         0.009220624377
    5        304.832700000000         0.032771664973
    6        139.045300000000         0.094175163564
    7         66.804170000000         0.209123480887
    8         33.206990000000         0.334555371138
    9         16.928160000000         0.330345542635
   10          8.696229000000         0.152340794057
   11          4.350510000000         0.022983063733
   12          2.116523000000         0.001606934538
   13          0.995387000000         0.000467980936
   14          0.378112000000         0.000065997311
   15          0.134579000000        -0.000001999919
   16      24411.980000000000         0.000000009885
   17       5778.518000000000         0.000000088964
   18       1876.862000000000         0.000000515334
   19        718.236100000000         0.000002291986
   20        304.832700000000         0.000008250622
   21        139.045300000000         0.000024393373
   22         66.804170000000         0.000056382987
   23         33.206990000000         0.000095368495
   24         16.928160000000         0.000094527617
   25          8.696229000000        -0.000028728904
   26          4.350510000000        -0.000229915584
   27          2.116523000000        -0.000299094944
   28          0.995387000000        -0.000177002208
   29          0.378112000000        -0.000025613833
   30          0.134579000000         0.000001642217
   31      24411.980000000000        -0.000000088456
   32       5778.518000000000        -0.000000737131
   33       1876.862000000000        -0.000004245873
   34        718.236100000000        -0.000019017972
   35        304.832700000000        -0.000068140361
   36        139.045300000000        -0.000203389101
   37         66.804170000000        -0.000468284387
   38         33.206990000000        -0.000806420980
   39         16.928160000000        -0.000784926249
   40          8.696229000000         0.000320150603
   41          4.350510000000         0.002354483893
   42          2.116523000000         0.003129178768
[...]
  BAS[ATNO][ 14].a[ 53] =         8.696229000000;     BAS[ATNO][ 14].d[ 53] =         0.302109053233;
  BAS[ATNO][ 14].a[ 54] =         4.350510000000;     BAS[ATNO][ 14].d[ 54] =         3.462184597911;
  BAS[ATNO][ 14].a[ 55] =         2.116523000000;     BAS[ATNO][ 14].d[ 55] =         3.766250869673;
  BAS[ATNO][ 14].a[ 56] =         0.995387000000;     BAS[ATNO][ 14].d[ 56] =         1.912112516160;
  BAS[ATNO][ 14].a[ 57] =         0.378112000000;     BAS[ATNO][ 14].d[ 57] =       -10.141833987264;
  BAS[ATNO][ 14].a[ 58] =         0.134579000000;     BAS[ATNO][ 14].d[ 58] =       -14.417479100168;
  BAS[ATNO][ 14].a[ 59] =     24411.980000000000;     BAS[ATNO][ 14].d[ 59] =         0.000039530869;
  BAS[ATNO][ 14].a[ 60] =      5778.518000000000;     BAS[ATNO][ 14].d[ 60] =         0.000316246955;
  BAS[ATNO][ 14].a[ 61] =      1876.862000000000;     BAS[ATNO][ 14].d[ 61] =         0.001956778037;
  BAS[ATNO][ 14].a[ 62] =       718.236100000000;     BAS[ATNO][ 14].d[ 62] =         0.008182889972;
  BAS[ATNO][ 14].a[ 63] =       304.832700000000;     BAS[ATNO][ 14].d[ 63] =         0.031417158480;
  BAS[ATNO][ 14].a[ 64] =       139.045300000000;     BAS[ATNO][ 14].d[ 64] =         0.087228157638;
  BAS[ATNO][ 14].a[ 65] =        66.804170000000;     BAS[ATNO][ 14].d[ 65] =         0.218625473386;
  BAS[ATNO][ 14].a[ 66] =        33.206990000000;     BAS[ATNO][ 14].d[ 66] =         0.337521151677;
  BAS[ATNO][ 14].a[ 67] =        16.928160000000;     BAS[ATNO][ 14].d[ 67] =         0.456854963770;
  BAS[ATNO][ 14].a[ 68] =         8.696229000000;     BAS[ATNO][ 14].d[ 68] =        -0.264000323014;
  BAS[ATNO][ 14].a[ 69] =         4.350510000000;     BAS[ATNO][ 14].d[ 69] =        -1.634169905631;
  BAS[ATNO][ 14].a[ 70] =         2.116523000000;     BAS[ATNO][ 14].d[ 70] =        -1.526912774148;
  BAS[ATNO][ 14].a[ 71] =         0.995387000000;     BAS[ATNO][ 14].d[ 71] =         2.880914231168;
  BAS[ATNO][ 14].a[ 72] =         0.378112000000;     BAS[ATNO][ 14].d[ 72] =         2.074678854892;
  BAS[ATNO][ 14].a[ 73] =         0.134579000000;     BAS[ATNO][ 14].d[ 73] =        -2.673887773721;
  BAS[ATNO][ 14].a[ 74] =         0.046282000000;     BAS[ATNO][ 14].d[ 74] =        -0.448325092137;
  BAS[ATNO][ 14].a[ 75] =         0.015920000000;     BAS[ATNO][ 14].d[ 75] =         0.141965155367;

  // Basis function  16 L = d
  InitBFNGauss(BAS[ATNO][ 15]);
  BAS[ATNO][ 15].l  = 2;
  BAS[ATNO][ 15].ng = 23;
  BAS[ATNO][ 15].a[  0] =       205.617700000000;     BAS[ATNO][ 15].d[  0] =         0.002324299393;
  BAS[ATNO][ 15].a[  1] =        61.449810000000;     BAS[ATNO][ 15].d[  1] =         0.018465377672;
  BAS[ATNO][ 15].a[  2] =        23.056890000000;     BAS[ATNO][ 15].d[  2] =         0.076519270625;
  BAS[ATNO][ 15].a[  3] =         9.577739000000;     BAS[ATNO][ 15].d[  3] =         0.200499107250;
  BAS[ATNO][ 15].a[  4] =         4.133734000000;     BAS[ATNO][ 15].d[  4] =         0.326964018889;
  BAS[ATNO][ 15].a[  5] =         1.747518000000;     BAS[ATNO][ 15].d[  5] =         0.358247778695;
  BAS[ATNO][ 15].a[  6] =         0.699560000000;     BAS[ATNO][ 15].d[  6] =         0.269603842962;
  BAS[ATNO][ 15].a[  7] =       205.617700000000;     BAS[ATNO][ 15].d[  7] =        -0.000010813752;
  BAS[ATNO][ 15].a[  8] =        61.449810000000;     BAS[ATNO][ 15].d[  8] =        -0.000086325335;
  BAS[ATNO][ 15].a[  9] =        23.056890000000;     BAS[ATNO][ 15].d[  9] =        -0.000367275124;
  BAS[ATNO][ 15].a[ 10] =         9.577739000000;     BAS[ATNO][ 15].d[ 10] =        -0.001004471921;
  BAS[ATNO][ 15].a[ 11] =         4.133734000000;     BAS[ATNO][ 15].d[ 11] =        -0.001273968168;
  BAS[ATNO][ 15].a[ 12] =         1.747518000000;     BAS[ATNO][ 15].d[ 12] =         0.000192513809;
  BAS[ATNO][ 15].a[ 13] =         0.699560000000;     BAS[ATNO][ 15].d[ 13] =         0.001777148971;
  BAS[ATNO][ 15].a[ 14] =       205.617700000000;     BAS[ATNO][ 15].d[ 14] =         0.000039483066;
  BAS[ATNO][ 15].a[ 15] =        61.449810000000;     BAS[ATNO][ 15].d[ 15] =         0.000335975552;
  BAS[ATNO][ 15].a[ 16] =        23.056890000000;     BAS[ATNO][ 15].d[ 16] =         0.001395937511;
  BAS[ATNO][ 15].a[ 17] =         9.577739000000;     BAS[ATNO][ 15].d[ 17] =         0.004481961372;
  BAS[ATNO][ 15].a[ 18] =         4.133734000000;     BAS[ATNO][ 15].d[ 18] =         0.001270742411;
  BAS[ATNO][ 15].a[ 19] =         1.747518000000;     BAS[ATNO][ 15].d[ 19] =        -0.008051388864;
  BAS[ATNO][ 15].a[ 20] =         0.699560000000;     BAS[ATNO][ 15].d[ 20] =        -0.001191068962;
  BAS[ATNO][ 15].a[ 21] =         0.251608000000;     BAS[ATNO][ 15].d[ 21] =         0.127490770720;
  BAS[ATNO][ 15].a[ 22] =         0.090490000000;     BAS[ATNO][ 15].d[ 22] =         0.012202469064;

  // Basis function  17 L = d
  InitBFNGauss(BAS[ATNO][ 16]);
  BAS[ATNO][ 16].l  = 2;
  BAS[ATNO][ 16].ng = 23;
  BAS[ATNO][ 16].a[  0] =       205.617700000000;     BAS[ATNO][ 16].d[  0] =        -0.000205708058;
  BAS[ATNO][ 16].a[  1] =        61.449810000000;     BAS[ATNO][ 16].d[  1] =        -0.001634245997;
  BAS[ATNO][ 16].a[  2] =        23.056890000000;     BAS[ATNO][ 16].d[  2] =        -0.006772204387;
  BAS[ATNO][ 16].a[  3] =         9.577739000000;     BAS[ATNO][ 16].d[  3] =        -0.017744823266;
  BAS[ATNO][ 16].a[  4] =         4.133734000000;     BAS[ATNO][ 16].d[  4] =        -0.028937379369;
  BAS[ATNO][ 16].a[  5] =         1.747518000000;     BAS[ATNO][ 16].d[  5] =        -0.031706093886;
  BAS[ATNO][ 16].a[  6] =         0.699560000000;     BAS[ATNO][ 16].d[  6] =        -0.023860817192;
  BAS[ATNO][ 16].a[  7] =       205.617700000000;     BAS[ATNO][ 16].d[  7] =        -0.000277455018;
  BAS[ATNO][ 16].a[  8] =        61.449810000000;     BAS[ATNO][ 16].d[  8] =        -0.002214901662;
  BAS[ATNO][ 16].a[  9] =        23.056890000000;     BAS[ATNO][ 16].d[  9] =        -0.009423401335;
  BAS[ATNO][ 16].a[ 10] =         9.577739000000;     BAS[ATNO][ 16].d[ 10] =        -0.025772347303;
  BAS[ATNO][ 16].a[ 11] =         4.133734000000;     BAS[ATNO][ 16].d[ 11] =        -0.032686976505;
  BAS[ATNO][ 16].a[ 12] =         1.747518000000;     BAS[ATNO][ 16].d[ 12] =         0.004939443937;
  BAS[ATNO][ 16].a[ 13] =         0.699560000000;     BAS[ATNO][ 16].d[ 13] =         0.045597392567;
  BAS[ATNO][ 16].a[ 14] =       205.617700000000;     BAS[ATNO][ 16].d[ 14] =         0.000138362813;
  BAS[ATNO][ 16].a[ 15] =        61.449810000000;     BAS[ATNO][ 16].d[ 15] =         0.001177378749;
  BAS[ATNO][ 16].a[ 16] =        23.056890000000;     BAS[ATNO][ 16].d[ 16] =         0.004891865345;
  BAS[ATNO][ 16].a[ 17] =         9.577739000000;     BAS[ATNO][ 16].d[ 17] =         0.015706398992;
  BAS[ATNO][ 16].a[ 18] =         4.133734000000;     BAS[ATNO][ 16].d[ 18] =         0.004453136843;
  BAS[ATNO][ 16].a[ 19] =         1.747518000000;     BAS[ATNO][ 16].d[ 19] =        -0.028214952212;
  BAS[ATNO][ 16].a[ 20] =         0.699560000000;     BAS[ATNO][ 16].d[ 20] =        -0.004173932525;
  BAS[ATNO][ 16].a[ 21] =         0.251608000000;     BAS[ATNO][ 16].d[ 21] =        -0.205119599874;
  BAS[ATNO][ 16].a[ 22] =         0.090490000000;     BAS[ATNO][ 16].d[ 22] =         1.111394281335;

  // Basis function  18 L = d
  InitBFNGauss(BAS[ATNO][ 17]);
  BAS[ATNO][ 17].l  = 2;
  BAS[ATNO][ 17].ng = 23;
  BAS[ATNO][ 17].a[  0] =       205.617700000000;     BAS[ATNO][ 17].d[  0] =        -0.001366557664;
  BAS[ATNO][ 17].a[  1] =        61.449810000000;     BAS[ATNO][ 17].d[  1] =        -0.010856606278;
  BAS[ATNO][ 17].a[  2] =        23.056890000000;     BAS[ATNO][ 17].d[  2] =        -0.044989038872;
  BAS[ATNO][ 17].a[  3] =         9.577739000000;     BAS[ATNO][ 17].d[  3] =        -0.117882228311;
  BAS[ATNO][ 17].a[  4] =         4.133734000000;     BAS[ATNO][ 17].d[  4] =        -0.192236502460;
  BAS[ATNO][ 17].a[  5] =         1.747518000000;     BAS[ATNO][ 17].d[  5] =        -0.210629598402;
  BAS[ATNO][ 17].a[  6] =         0.699560000000;     BAS[ATNO][ 17].d[  6] =        -0.158511936564;
  BAS[ATNO][ 17].a[  7] =       205.617700000000;     BAS[ATNO][ 17].d[  7] =         0.000808574526;
  BAS[ATNO][ 17].a[  8] =        61.449810000000;     BAS[ATNO][ 17].d[  8] =         0.006454787068;
  BAS[ATNO][ 17].a[  9] =        23.056890000000;     BAS[ATNO][ 17].d[  9] =         0.027462189464;
  BAS[ATNO][ 17].a[ 10] =         9.577739000000;     BAS[ATNO][ 17].d[ 10] =         0.075107178331;
  BAS[ATNO][ 17].a[ 11] =         4.133734000000;     BAS[ATNO][ 17].d[ 11] =         0.095258167391;
  BAS[ATNO][ 17].a[ 12] =         1.747518000000;     BAS[ATNO][ 17].d[ 12] =        -0.014394796573;
  BAS[ATNO][ 17].a[ 13] =         0.699560000000;     BAS[ATNO][ 17].d[ 13] =        -0.132882405108;
  BAS[ATNO][ 17].a[ 14] =       205.617700000000;     BAS[ATNO][ 17].d[ 14] =        -0.000494791959;
  BAS[ATNO][ 17].a[ 15] =        61.449810000000;     BAS[ATNO][ 17].d[ 15] =        -0.004210362057;
  BAS[ATNO][ 17].a[ 16] =        23.056890000000;     BAS[ATNO][ 17].d[ 16] =        -0.017493541693;
  BAS[ATNO][ 17].a[ 17] =         9.577739000000;     BAS[ATNO][ 17].d[ 17] =        -0.056166825172;
  BAS[ATNO][ 17].a[ 18] =         4.133734000000;     BAS[ATNO][ 17].d[ 18] =        -0.015924627832;
  BAS[ATNO][ 17].a[ 19] =         1.747518000000;     BAS[ATNO][ 17].d[ 19] =         0.100898002715;
  BAS[ATNO][ 17].a[ 20] =         0.699560000000;     BAS[ATNO][ 17].d[ 20] =         0.014926179994;
  BAS[ATNO][ 17].a[ 21] =         0.251608000000;     BAS[ATNO][ 17].d[ 21] =         1.473116248963;
  BAS[ATNO][ 17].a[ 22] =         0.090490000000;     BAS[ATNO][ 17].d[ 22] =        -0.780206769784;

  // Basis function  19 L = d
  InitBFNGauss(BAS[ATNO][ 18]);
  BAS[ATNO][ 18].l  = 2;
  BAS[ATNO][ 18].ng = 23;
  BAS[ATNO][ 18].a[  0] =       205.617700000000;     BAS[ATNO][ 18].d[  0] =         0.002513208955;
  BAS[ATNO][ 18].a[  1] =        61.449810000000;     BAS[ATNO][ 18].d[  1] =         0.019966168151;
  BAS[ATNO][ 18].a[  2] =        23.056890000000;     BAS[ATNO][ 18].d[  2] =         0.082738444414;
  BAS[ATNO][ 18].a[  3] =         9.577739000000;     BAS[ATNO][ 18].d[  3] =         0.216794855790;
  BAS[ATNO][ 18].a[  4] =         4.133734000000;     BAS[ATNO][ 18].d[  4] =         0.353538318927;
  BAS[ATNO][ 18].a[  5] =         1.747518000000;     BAS[ATNO][ 18].d[  5] =         0.387364694959;
  BAS[ATNO][ 18].a[  6] =         0.699560000000;     BAS[ATNO][ 18].d[  6] =         0.291516142177;
  BAS[ATNO][ 18].a[  7] =       205.617700000000;     BAS[ATNO][ 18].d[  7] =        -0.008000196652;
  BAS[ATNO][ 18].a[  8] =        61.449810000000;     BAS[ATNO][ 18].d[  8] =        -0.063864942839;
  BAS[ATNO][ 18].a[  9] =        23.056890000000;     BAS[ATNO][ 18].d[  9] =        -0.271716346623;
  BAS[ATNO][ 18].a[ 10] =         9.577739000000;     BAS[ATNO][ 18].d[ 10] =        -0.743125311543;
  BAS[ATNO][ 18].a[ 11] =         4.133734000000;     BAS[ATNO][ 18].d[ 11] =        -0.942503192004;
  BAS[ATNO][ 18].a[ 12] =         1.747518000000;     BAS[ATNO][ 18].d[ 12] =         0.142424970899;
  BAS[ATNO][ 18].a[ 13] =         0.699560000000;     BAS[ATNO][ 18].d[ 13] =         1.314764858554;
  BAS[ATNO][ 18].a[ 14] =       205.617700000000;     BAS[ATNO][ 18].d[ 14] =         0.003664978255;
  BAS[ATNO][ 18].a[ 15] =        61.449810000000;     BAS[ATNO][ 18].d[ 15] =         0.031186613095;
  BAS[ATNO][ 18].a[ 16] =        23.056890000000;     BAS[ATNO][ 18].d[ 16] =         0.129576580141;
  BAS[ATNO][ 18].a[ 17] =         9.577739000000;     BAS[ATNO][ 18].d[ 17] =         0.416033828424;
  BAS[ATNO][ 18].a[ 18] =         4.133734000000;     BAS[ATNO][ 18].d[ 18] =         0.117955463261;
  BAS[ATNO][ 18].a[ 19] =         1.747518000000;     BAS[ATNO][ 18].d[ 19] =        -0.747362561818;
  BAS[ATNO][ 18].a[ 20] =         0.699560000000;     BAS[ATNO][ 18].d[ 20] =        -0.110559850723;
  BAS[ATNO][ 18].a[ 21] =         0.251608000000;     BAS[ATNO][ 18].d[ 21] =        -1.074551855608;
  BAS[ATNO][ 18].a[ 22] =         0.090490000000;     BAS[ATNO][ 18].d[ 22] =         0.379411247594;

  // Basis function  20 L = d
  InitBFNGauss(BAS[ATNO][ 19]);
  BAS[ATNO][ 19].l  = 2;
  BAS[ATNO][ 19].ng = 23;
  BAS[ATNO][ 19].a[  0] =       205.617700000000;     BAS[ATNO][ 19].d[  0] =        -0.003127154547;
  BAS[ATNO][ 19].a[  1] =        61.449810000000;     BAS[ATNO][ 19].d[  1] =        -0.024843653926;
  BAS[ATNO][ 19].a[  2] =        23.056890000000;     BAS[ATNO][ 19].d[  2] =        -0.102950414113;
  BAS[ATNO][ 19].a[  3] =         9.577739000000;     BAS[ATNO][ 19].d[  3] =        -0.269755134258;
  BAS[ATNO][ 19].a[  4] =         4.133734000000;     BAS[ATNO][ 19].d[  4] =        -0.439903319385;
  BAS[ATNO][ 19].a[  5] =         1.747518000000;     BAS[ATNO][ 19].d[  5] =        -0.481993057052;
  BAS[ATNO][ 19].a[  6] =         0.699560000000;     BAS[ATNO][ 19].d[  6] =        -0.362729898663;
  BAS[ATNO][ 19].a[  7] =       205.617700000000;     BAS[ATNO][ 19].d[  7] =         0.006632048965;
  BAS[ATNO][ 19].a[  8] =        61.449810000000;     BAS[ATNO][ 19].d[  8] =         0.052943127085;
  BAS[ATNO][ 19].a[  9] =        23.056890000000;     BAS[ATNO][ 19].d[  9] =         0.225248977462;
  BAS[ATNO][ 19].a[ 10] =         9.577739000000;     BAS[ATNO][ 19].d[ 10] =         0.616040288456;
  BAS[ATNO][ 19].a[ 11] =         4.133734000000;     BAS[ATNO][ 19].d[ 11] =         0.781321708807;
  BAS[ATNO][ 19].a[ 12] =         1.747518000000;     BAS[ATNO][ 19].d[ 12] =        -0.118068270308;
  BAS[ATNO][ 19].a[ 13] =         0.699560000000;     BAS[ATNO][ 19].d[ 13] =        -1.089921323004;
  BAS[ATNO][ 19].a[ 14] =       205.617700000000;     BAS[ATNO][ 19].d[ 14] =        -0.009289970774;
  BAS[ATNO][ 19].a[ 15] =        61.449810000000;     BAS[ATNO][ 19].d[ 15] =        -0.079051689812;
  BAS[ATNO][ 19].a[ 16] =        23.056890000000;     BAS[ATNO][ 19].d[ 16] =        -0.328450145866;
  BAS[ATNO][ 19].a[ 17] =         9.577739000000;     BAS[ATNO][ 19].d[ 17] =        -1.054560719867;
  BAS[ATNO][ 19].a[ 18] =         4.133734000000;     BAS[ATNO][ 19].d[ 18] =        -0.298992989873;
  BAS[ATNO][ 19].a[ 19] =         1.747518000000;     BAS[ATNO][ 19].d[ 19] =         1.894411337121;
  BAS[ATNO][ 19].a[ 20] =         0.699560000000;     BAS[ATNO][ 19].d[ 20] =         0.280246623714;
  BAS[ATNO][ 19].a[ 21] =         0.251608000000;     BAS[ATNO][ 19].d[ 21] =         0.571542503903;
  BAS[ATNO][ 19].a[ 22] =         0.090490000000;     BAS[ATNO][ 19].d[ 22] =        -0.193262782464;

  // Basis function  21 L = f
  InitBFNGauss(BAS[ATNO][ 20]);
  BAS[ATNO][ 20].l  = 3;
  BAS[ATNO][ 20].ng = 3;
  BAS[ATNO][ 20].a[  0] =         5.792200000000;     BAS[ATNO][ 20].d[  0] =         0.028891734232;
  BAS[ATNO][ 20].a[  1] =         1.485100000000;     BAS[ATNO][ 20].d[  1] =        -0.081290669625;
  BAS[ATNO][ 20].a[  2] =         0.548610000000;     BAS[ATNO][ 20].d[  2] =         1.043583781489;

  // Basis function  22 L = f
  InitBFNGauss(BAS[ATNO][ 21]);
  BAS[ATNO][ 21].l  = 3;
  BAS[ATNO][ 21].ng = 3;
  BAS[ATNO][ 21].a[  0] =         5.792200000000;     BAS[ATNO][ 21].d[  0] =         0.066955560129;
  BAS[ATNO][ 21].a[  1] =         1.485100000000;     BAS[ATNO][ 21].d[  1] =         1.194871514897;
  BAS[ATNO][ 21].a[  2] =         0.548610000000;     BAS[ATNO][ 21].d[  2] =        -0.651652557500;

  // Basis function  23 L = f
  InitBFNGauss(BAS[ATNO][ 22]);
  BAS[ATNO][ 22].l  = 3;
  BAS[ATNO][ 22].ng = 3;
  BAS[ATNO][ 22].a[  0] =         5.792200000000;     BAS[ATNO][ 22].d[  0] =         1.099458689742;
  BAS[ATNO][ 22].a[  1] =         1.485100000000;     BAS[ATNO][ 22].d[  1] =        -0.633241096542;
  BAS[ATNO][ 22].a[  2] =         0.548610000000;     BAS[ATNO][ 22].d[  2] =         0.258609743055;

  // Basis function  24 L = g
  InitBFNGauss(BAS[ATNO][ 23]);
  BAS[ATNO][ 23].l  = 4;
  BAS[ATNO][ 23].ng = 2;
  BAS[ATNO][ 23].a[  0] =         4.114400000000;     BAS[ATNO][ 23].d[  0] =        -0.169808852899;
  BAS[ATNO][ 23].a[  1] =         1.829330000000;     BAS[ATNO][ 23].d[  1] =         1.100910976360;

  // Basis function  25 L = g
  InitBFNGauss(BAS[ATNO][ 24]);
  BAS[ATNO][ 24].l  = 4;
  BAS[ATNO][ 24].ng = 2;
  BAS[ATNO][ 24].a[  0] =         4.114400000000;     BAS[ATNO][ 24].d[  0] =         1.296285073563;
  BAS[ATNO][ 24].a[  1] =         1.829330000000;     BAS[ATNO][ 24].d[  1] =        -0.705113509015;

-------
TIMINGS
-------

Total SCF time: 0 days 0 hours 1 min 30 sec 

Total time                  ....      90.745 sec
Sum of individual times     ....      90.431 sec  ( 99.7%)

Fock matrix formation       ....      90.184 sec  ( 99.4%)
  XC integration            ....       0.139 sec  (  0.2% of F)
    Basis function eval.    ....       0.023 sec  ( 16.8% of XC)
    Density eval.           ....       0.013 sec  (  9.1% of XC)
    XC-Functional eval.     ....       0.006 sec  (  4.4% of XC)
    XC-Potential eval.      ....       0.023 sec  ( 16.7% of XC)
Diagonalization             ....       0.011 sec  (  0.0%)
Density matrix formation    ....       0.002 sec  (  0.0%)
Population analysis         ....       0.002 sec  (  0.0%)
Initial guess               ....       0.092 sec  (  0.1%)
Orbital Transformation      ....       0.000 sec  (  0.0%)
Orbital Orthonormalization  ....       0.000 sec  (  0.0%)
DIIS solution               ....       0.005 sec  (  0.0%)
Grid generation             ....       0.134 sec  (  0.1%)

-------------------------   --------------------
FINAL SINGLE POINT ENERGY     -1779.338202201977
-------------------------   --------------------


                            ***************************************
                            *     ORCA property calculations      *
                            ***************************************

                                    ---------------------
                                    Active property flags
                                    ---------------------
   (+) Dipole Moment


------------------------------------------------------------------------------
                       ORCA ELECTRIC PROPERTIES CALCULATION
------------------------------------------------------------------------------

Dipole Moment Calculation                       ... on
Quadrupole Moment Calculation                   ... off
Polarizability Calculation                      ... off
GBWName                                         ... 70_Zn.gbw
Electron density file                           ... 70_Zn.scfp
The origin for moment calculation is the CENTER OF MASS  = ( 0.000000,  0.000000  0.000000)

-------------
DIPOLE MOMENT
-------------
                                X             Y             Z
Electronic contribution:     -0.00000       0.00000       0.00000
Nuclear contribution   :      0.00000       0.00000       0.00000
                        -----------------------------------------
Total Dipole Moment    :     -0.00000       0.00000       0.00000
                        -----------------------------------------
Magnitude (a.u.)       :      0.00000
Magnitude (Debye)      :      0.00000



--------------------
Rotational spectrum 
--------------------
 
Rotational constants in cm-1:     0.000000     0.000000     0.000000 
Rotational constants in MHz :     0.000000     0.000000     0.000000 

 Dipole components along the rotational axes: 
x,y,z [a.u.] :    -0.000000     0.000000     0.000000 
x,y,z [Debye]:    -0.000000     0.000000     0.000000 

 

Timings for individual modules:

Sum of individual times         ...       94.149 sec (=   1.569 min)
GTO integral calculation        ...        2.901 sec (=   0.048 min)   3.1 %
SCF iterations                  ...       91.249 sec (=   1.521 min)  96.9 %
                             ****ORCA TERMINATED NORMALLY****
TOTAL RUN TIME: 0 days 0 hours 1 minutes 34 seconds 737 msec
