
                                 *****************
                                 * O   R   C   A *
                                 *****************

           --- An Ab Initio, DFT and Semiempirical electronic structure package ---

                  #######################################################
                  #                        -***-                        #
                  #          Department of theory and spectroscopy      #
                  #               Directorship: Frank Neese             #
                  #        Max Planck Institute fuer Kohlenforschung    #
                  #                Kaiser Wilhelm Platz 1               #
                  #                 D-45470 Muelheim/Ruhr               #
                  #                      Germany                        #
                  #                                                     #
                  #                  All rights reserved                #
                  #                        -***-                        #
                  #######################################################


                         Program Version 4.2.0 -  RELEASE  -


 With contributions from (in alphabetic order):
   Daniel Aravena         : Magnetic Suceptibility
   Michael Atanasov       : Ab Initio Ligand Field Theory (pilot matlab implementation)
   Alexander A. Auer      : GIAO ZORA, VPT2
   Ute Becker             : Parallelization
   Giovanni Bistoni       : ED, misc. LED, open-shell LED, HFLED
   Martin Brehm           : Molecular dynamics
   Dmytro Bykov           : SCF Hessian
   Vijay G. Chilkuri      : MRCI spin determinant printing, contributions to CSF-ICE
   Dipayan Datta          : RHF DLPNO-CCSD density
   Achintya Kumar Dutta   : EOM-CC, STEOM-CC
   Dmitry Ganyushin       : Spin-Orbit,Spin-Spin,Magnetic field MRCI
   Miquel Garcia          : C-PCM Hessian, Gaussian charge scheme
   Yang Guo               : DLPNO-NEVPT2, CIM, IAO-localization
   Andreas Hansen         : Spin unrestricted coupled pair/coupled cluster methods
   Benjamin Helmich-Paris : CASSCF linear response (MC-RPA)
   Lee Huntington         : MR-EOM, pCC
   Robert Izsak           : Overlap fitted RIJCOSX, COSX-SCS-MP3, EOM
   Christian Kollmar      : KDIIS, OOCD, Brueckner-CCSD(T), CCSD density
   Simone Kossmann        : Meta GGA functionals, TD-DFT gradient, OOMP2, MP2 Hessian
   Martin Krupicka        : AUTO-CI
   Lucas Lang             : DCDCAS
   Dagmar Lenk            : GEPOL surface, SMD
   Dimitrios Liakos       : Extrapolation schemes; Compound Job, initial MDCI parallelization
   Dimitrios Manganas     : Further ROCIS development; embedding schemes
   Dimitrios Pantazis     : SARC Basis sets
   Taras Petrenko         : DFT Hessian,TD-DFT gradient, ASA, ECA, R-Raman, ABS, FL, XAS/XES, NRVS
   Peter Pinski           : DLPNO-MP2, DLPNO-MP2 Gradient
   Christoph Reimann      : Effective Core Potentials
   Marius Retegan         : Local ZFS, SOC
   Christoph Riplinger    : Optimizer, TS searches, QM/MM, DLPNO-CCSD(T), (RO)-DLPNO pert. Triples
   Tobias Risthaus        : Range-separated hybrids, TD-DFT gradient, RPA, STAB
   Michael Roemelt        : Original ROCIS implementation
   Masaaki Saitow         : Open-shell DLPNO-CCSD energy and density
   Barbara Sandhoefer     : DKH picture change effects
   Avijit Sen             : IP-ROCIS
   Kantharuban Sivalingam : CASSCF convergence, NEVPT2, FIC-MRCI
   Bernardo de Souza      : ESD, SOC TD-DFT
   Georgi Stoychev        : AutoAux, RI-MP2 NMR
   Willem Van den Heuvel  : Paramagnetic NMR
   Boris Wezisla          : Elementary symmetry handling
   Frank Wennmohs         : Technical directorship


 We gratefully acknowledge several colleagues who have allowed us to
 interface, adapt or use parts of their codes:
   Stefan Grimme, W. Hujo, H. Kruse,             : VdW corrections, initial TS optimization,
                  C. Bannwarth                     DFT functionals, gCP, sTDA/sTD-DF
   Ed Valeev, F. Pavosevic, A. Kumar             : LibInt (2-el integral package), F12 methods
   Garnet Chan, S. Sharma, J. Yang, R. Olivares  : DMRG
   Ulf Ekstrom                                   : XCFun DFT Library
   Mihaly Kallay                                 : mrcc  (arbitrary order and MRCC methods)
   Andreas Klamt, Michael Diedenhofen            : otool_cosmo (COSMO solvation model)
   Jiri Pittner, Ondrej Demel                    : Mk-CCSD
   Frank Weinhold                                : gennbo (NPA and NBO analysis)
   Christopher J. Cramer and Donald G. Truhlar   : smd solvation model
   Lars Goerigk                                  : TD-DFT with DH, B97 family of functionals
   V. Asgeirsson, H. Jonsson                     : NEB implementation
   FAccTs GmbH                                   : IRC, NEB, NEB-TS, Multilevel, MM, QM/MM, CI optimization
   S Lehtola, MJT Oliveira, MAL Marques          : LibXC Library


 Your calculation uses the libint2 library for the computation of 2-el integrals
 For citations please refer to: http://libint.valeyev.net

 Your ORCA version has been built with support for libXC version: 4.2.3
 For citations please refer to: https://tddft.org/programs/libxc/

 This ORCA versions uses:
   CBLAS   interface :  Fast vector & matrix operations
   LAPACKE interface :  Fast linear algebra routines
   SCALAPACK package :  Parallel linear algebra routines


Your calculation utilizes the DFT-NL dispersion correction.
Cite in your paper:
Vydrov, O. A.; Van Voorhis, T. J. Chem. Phys. 2010, 133, 244103
Hujo, W.; Grimme, S. J. Chem. Theory Comput. 2011, 7, 3866 
   

----- Orbital basis set information -----
Your calculation utilizes the basis: aug-cc-pVTZ 
    H, B-Ne : Obtained from the ccRepo (grant-hill.group.shef.ac.uk/ccrepo) Feb. 2017
              R. A. Kendall, T. H. Dunning, Jr., R. J. Harrison, J. Chem. Phys. 96, 6796 (1992)
         He : Obtained from the ccRepo (grant-hill.group.shef.ac.uk/ccrepo) Feb. 2017
              D. E. Woon, T. H. Dunning, Jr., J. Chem. Phys. 100, 2975 (1994)
  Li-Be, Na : Obtained from the ccRepo (grant-hill.group.shef.ac.uk/ccrepo) Feb. 2017
              B. P. Prascher, D. E. Woon, K. A. Peterson, T. H. Dunning, Jr., A. K. Wilson, Theor. Chem. Acc. 128, 69 (2011)
         Mg : Obtained from the Peterson Research Group Website (tyr0.chem.wsu.edu/~kipeters) Feb. 2017
              B. P. Prascher, D. E. Woon, K. A. Peterson, T. H. Dunning, Jr., A. K. Wilson, Theor. Chem. Acc. 128, 69 (2011)
      Al-Ar : Obtained from the ccRepo (grant-hill.group.shef.ac.uk/ccrepo) Feb. 2017
              D. E. Woon, T. H. Dunning, Jr., J. Chem. Phys. 98, 1358 (1993)
      Sc-Zn : Obtained from the ccRepo (grant-hill.group.shef.ac.uk/ccrepo) Feb. 2017
              N. B. Balabanov, K. A. Peterson, J. Chem. Phys. 123, 064107 (2005)
              N. B. Balabanov, K. A. Peterson, J. Chem. Phys. 125, 074110 (2006)
      Ga-Kr : Obtained from the ccRepo (grant-hill.group.shef.ac.uk/ccrepo) Feb. 2017
              A. K. Wilson, D. E. Woon, K. A. Peterson, T. H. Dunning, Jr., J. Chem. Phys. 110, 7667 (1999)
     Ag, Au : Obtained from the Peterson Research Group Website (tyr0.chem.wsu.edu/~kipeters) Feb. 2017
              K. A. Peterson, C. Puzzarini, Theor. Chem. Acc. 114, 283 (2005)

----- AuxJK basis set information -----
Your calculation utilizes the auxiliary basis: def2/JK
   H-Ba, Hf-Rn: F. Weigend, J. Comput. Chem. 29, 167 (2008).

================================================================================
                                        WARNINGS
                       Please study these warnings very carefully!
================================================================================


WARNING: your system is open-shell and RHF/RKS was chosen
  ===> : WILL SWITCH to UHF/UKS


INFO   : the flag for use of LIBINT has been found!

================================================================================
                                       INPUT FILE
================================================================================
NAME = 72_F.in
|  1> #
|  2> # 72_F wb97m-v/aug-cc-pvtz
|  3> #
|  4> ! wb97m-v aug-cc-pvtz def2/jk grid4 nofinalgrid
|  5> 
|  6> *xyz 0 2
|  7> F 0.0 0.0 0.0
|  8> *
|  9> 
| 10> %pal
| 11> nprocs 24
| 12> end
| 13> 
| 14> 
| 15>                          ****END OF INPUT****
================================================================================

                       ****************************
                       * Single Point Calculation *
                       ****************************

---------------------------------
CARTESIAN COORDINATES (ANGSTROEM)
---------------------------------
  F      0.000000    0.000000    0.000000

----------------------------
CARTESIAN COORDINATES (A.U.)
----------------------------
  NO LB      ZA    FRAG     MASS         X           Y           Z
   0 F     9.0000    0    18.998    0.000000    0.000000    0.000000

--------------------------------
INTERNAL COORDINATES (ANGSTROEM)
--------------------------------
 F      0   0   0     0.000000000000     0.00000000     0.00000000

---------------------------
INTERNAL COORDINATES (A.U.)
---------------------------
 F      0   0   0     0.000000000000     0.00000000     0.00000000

---------------------
BASIS SET INFORMATION
---------------------
There are 1 groups of distinct atoms

 Group   1 Type F   : 19s6p3d2f contracted to 5s4p3d2f pattern {88111/3111/111/11}

Atom   0F    basis set group =>   1
----------------------------------
AUXILIARY/JK BASIS SET INFORMATION
----------------------------------
There are 1 groups of distinct atoms

 Group   1 Type F   : 14s10p6d2f1g contracted to 10s8p4d2f1g pattern {5111111111/31111111/3111/11/1}

Atom   0F    basis set group =>   1


           ************************************************************
           *        Program running with 24 parallel MPI-processes    *
           *              working on a common directory               *
           ************************************************************
------------------------------------------------------------------------------
                           ORCA GTO INTEGRAL CALCULATION
------------------------------------------------------------------------------

                         BASIS SET STATISTICS AND STARTUP INFO

 # of primitive gaussian shells          ...   30
 # of primitive gaussian functions       ...   66
 # of contracted shells                  ...   14
 # of contracted basis functions         ...   46
 Highest angular momentum                ...    3
 Maximum contraction depth               ...    8
 Integral package used                   ... LIBINT
 Integral threshhold            Thresh   ...  1.000e-10
 Primitive cut-off              TCut     ...  1.000e-11


------------------------------ INTEGRAL EVALUATION ----------------------------


 * One electron integrals 
 Pre-screening matrix                    ... done
 Shell pair data                         ... done (   0.000 sec)



           ************************************************************
           *        Program running with 24 parallel MPI-processes    *
           *              working on a common directory               *
           ************************************************************
-------------------------------------------------------------------------------
                                 ORCA SCF
-------------------------------------------------------------------------------

------------
SCF SETTINGS
------------
Hamiltonian:
 Density Functional     Method          .... DFT(GTOs)
 Exchange Functional    Exchange        .... WB97M-V
 Correlation Functional Correlation     .... WB97M-V
 Gradients option       PostSCFGGA      .... off
 Hybrid DFT is turned on
   Fraction HF Exchange ScalHFX         ....  0.150000
   Scaling of DF-GGA-X  ScalDFX         ....  0.000000
   Scaling of DF-GGA-C  ScalDFC         ....  1.000000
   Scaling of DF-LDA-C  ScalLDAC        ....  1.000000
   Perturbative correction              ....  0.000000
   Density functional embedding theory  .... OFF
 Long-range corrected/Screened/Range-Separated Hybrid DFT is turned on
   Amount of maximum screened exact exchange              ....  0.850000
   Range separation parameter mu (erf(mu*r12)/r12)        ....  0.300000
   NL short-range parameter             ....  6.000000
   NL long-range parameter              ....  0.010000


General Settings:
 Integral files         IntName         .... 72_F
 Hartree-Fock type      HFTyp           .... UHF
 Total Charge           Charge          ....    0
 Multiplicity           Mult            ....    2
 Number of Electrons    NEL             ....    9
 Basis Dimension        Dim             ....   46
 Nuclear Repulsion      ENuc            ....      0.0000000000 Eh

Convergence Acceleration:
 DIIS                   CNVDIIS         .... on
   Start iteration      DIISMaxIt       ....    12
   Startup error        DIISStart       ....  0.200000
   # of expansion vecs  DIISMaxEq       ....     5
   Bias factor          DIISBfac        ....   1.050
   Max. coefficient     DIISMaxC        ....  10.000
 Newton-Raphson         CNVNR           .... off
 SOSCF                  CNVSOSCF        .... off
 Level Shifting         CNVShift        .... on
   Level shift para.    LevelShift      ....    0.2500
   Turn off err/grad.   ShiftErr        ....    0.0010
 Zerner damping         CNVZerner       .... off
 Static damping         CNVDamp         .... on
   Fraction old density DampFac         ....    0.7000
   Max. Damping (<1)    DampMax         ....    0.9800
   Min. Damping (>=0)   DampMin         ....    0.0000
   Turn off err/grad.   DampErr         ....    0.1000
 Fernandez-Rico         CNVRico         .... off

SCF Procedure:
 Maximum # iterations   MaxIter         ....   125
 SCF integral mode      SCFMode         .... Direct
   Integral package                     .... LIBINT
 Reset frequency        DirectResetFreq ....    20
 Integral Threshold     Thresh          ....  1.000e-10 Eh
 Primitive CutOff       TCut            ....  1.000e-11 Eh

Convergence Tolerance:
 Convergence Check Mode ConvCheckMode   .... Total+1el-Energy
 Convergence forced     ConvForced      .... 0
 Energy Change          TolE            ....  1.000e-06 Eh
 1-El. energy change                    ....  1.000e-03 Eh
 DIIS Error             TolErr          ....  1.000e-06


Diagonalization of the overlap matrix:
Smallest eigenvalue                        ... 2.846e-02
Time for diagonalization                   ...    0.001 sec
Threshold for overlap eigenvalues          ... 1.000e-08
Number of eigenvalues below threshold      ... 0
Time for construction of square roots      ...    0.001 sec
Total time needed                          ...    0.003 sec

-------------------
DFT GRID GENERATION
-------------------

General Integration Accuracy     IntAcc      ...  4.670
Radial Grid Type                 RadialGrid  ... Gauss-Chebyshev
Angular Grid (max. acc.)         AngularGrid ... Lebedev-302
Angular grid pruning method      GridPruning ... 3 (G Style)
Weight generation scheme         WeightScheme... Becke
Basis function cutoff            BFCut       ...    1.0000e-10
Integration weight cutoff        WCut        ...    1.0000e-14
Grids for H and He will be reduced by one unit

# of grid points (after initial pruning)     ...   6272 (   0.0 sec)
# of grid points (after weights+screening)   ...   6272 (   0.0 sec)
Grid point division into batches done        ...    0.0 sec
Reduced shell lists constructed in    0.0 sec

Total number of grid points                  ...     6272
Total number of batches                      ...       99
Average number of points per batch           ...       63
Average number of grid points per atom       ...     6272
Average number of shells per batch           ...     1.67 (11.90%)
Average number of basis functions per batch  ...     3.33 ( 7.25%)
Average number of large shells per batch     ...     1.67 (100.00%)
Average number of large basis fcns per batch ...     3.33 (100.00%)
Maximum spatial batch extension              ...  15.22, 15.22, 15.22 au
Average spatial batch extension              ...   0.67,  0.67,  0.72 au

Time for grid setup =    0.055 sec

------------------------------
INITIAL GUESS: MODEL POTENTIAL
------------------------------
Loading Hartree-Fock densities                     ... done
Calculating cut-offs                               ... done
Setting up the integral package                    ... done
Initializing the effective Hamiltonian             ... done
Starting the Coulomb interaction                   ... done (   0.0 sec)
Reading the grid                                   ... done
Mapping shells                                     ... done
Starting the XC term evaluation                    ... done (   0.0 sec)
  promolecular density results
     # of electrons  =      9.000001927
     EX              =     -9.914469873
     EC              =     -0.296868576
     EX+EC           =    -10.211338449
Transforming the Hamiltonian                       ... done (   0.0 sec)
Diagonalizing the Hamiltonian                      ... done (   0.0 sec)
Back transforming the eigenvectors                 ... done (   0.0 sec)
Now organizing SCF variables                       ... done
                      ------------------
                      INITIAL GUESS DONE (   0.2 sec)
                      ------------------
--------------
SCF ITERATIONS
--------------
ITER       Energy         Delta-E        Max-DP      RMS-DP      [F,P]     Damp
               ***  Starting incremental Fock matrix formation  ***
  0    -99.7756114984   0.000000000000 0.00487036  0.00019169  0.0735488 0.7000
  1    -99.7769471571  -0.001335658683 0.00421364  0.00015333  0.0508011 0.7000
                               ***Turning on DIIS***
  2    -99.7779565635  -0.001009406416 0.01069597  0.00037551  0.0350409 0.0000
  3    -99.7805919661  -0.002635402648 0.00215121  0.00009810  0.0084039 0.0000
  4    -99.7807118340  -0.000119867860 0.00072077  0.00003564  0.0037813 0.0000
  5    -99.7807480654  -0.000036231431 0.00058858  0.00002794  0.0009749 0.0000
  6    -99.7807695531  -0.000021487658 0.00006553  0.00000318  0.0000836 0.0000
  7    -99.7807715824  -0.000002029274 0.00000922  0.00000048  0.0000060 0.0000
                 **** Energy Check signals convergence ****

               *****************************************************
               *                     SUCCESS                       *
               *           SCF CONVERGED AFTER   8 CYCLES          *
               *****************************************************


Setting up the DFT-NL grid :

General Integration Accuracy     IntAcc      ...  4.340
Radial Grid Type                 RadialGrid  ... Gauss-Chebyshev
Angular Grid (max. acc.)         AngularGrid ... Lebedev-110
Angular grid pruning method      GridPruning ... 3 (G Style)
Weight generation scheme         WeightScheme... Becke
Basis function cutoff            BFCut       ...    1.0000e-10
Integration weight cutoff        WCut        ...    1.0000e-14
Grids for H and He will be reduced by one unit

# of grid points (after initial pruning)     ...   1740 (   0.0 sec)
# of grid points (after weights+screening)   ...   1740 (   0.0 sec)
Grid point division into batches done        ...    0.0 sec
Reduced shell lists constructed in    0.0 sec

Total number of grid points                  ...     1740
Total number of batches                      ...       28
Average number of points per batch           ...       62
Average number of grid points per atom       ...     1740
Average number of shells per batch           ...     6.67 (47.62%)
Average number of basis functions per batch  ...    20.00 (43.48%)
Average number of large shells per batch     ...     4.67 (70.00%)
Average number of large basis fcns per batch ...    16.67 (83.33%)
Maximum spatial batch extension              ...  13.89, 25.65, 25.65 au
Average spatial batch extension              ...   0.99,  1.83,  1.83 au

Final grid set up in    0.0 sec

-------------------------------------------------------------------------------
                         DFT-NL dispersion correction                          
-------------------------------------------------------------------------------

SC Energy -99.780771795 
NL    Energy 0.039627378 
SC+NL Energy -99.741144416 
NL done in    0.0 sec
-------------------------------------------------------------------------------

----------------
TOTAL SCF ENERGY
----------------

Total Energy       :          -99.74114442 Eh           -2714.09452 eV

Components:
Nuclear Repulsion  :            0.00000000 Eh               0.00000 eV
Electronic Energy  :          -99.74114442 Eh           -2714.09452 eV
One Electron Energy:         -139.08715930 Eh           -3784.75402 eV
Two Electron Energy:           39.34601489 Eh            1070.65950 eV

Virial components:
Potential Energy   :         -199.13030187 Eh           -5418.61099 eV
Kinetic Energy     :           99.38915746 Eh            2704.51647 eV
Virial Ratio       :            2.00354150


DFT components:
N(Alpha)           :        5.000000516695 electrons
N(Beta)            :        4.000000509358 electrons
N(Total)           :        9.000001026053 electrons
E(X)               :       -7.323567264658 Eh       
E(C)               :       -0.314894656654 Eh       
NL Energy, E(C,NL) :        0.039627378101 Eh       
E(XC)              :       -7.598834543211 Eh       
DFET-embed. en.    :        0.000000000000 Eh       

---------------
SCF CONVERGENCE
---------------

  Last Energy change         ...   -2.1216e-07  Tolerance :   1.0000e-06
  Last MAX-Density change    ...    2.1895e-06  Tolerance :   1.0000e-05
  Last RMS-Density change    ...    1.0828e-07  Tolerance :   1.0000e-06
  Last DIIS Error            ...    7.4555e-07  Tolerance :   1.0000e-06

             **** THE GBW FILE WAS UPDATED (72_F.gbw) ****
             **** DENSITY FILE WAS UPDATED (72_F.scfp) ****
             **** ENERGY FILE WAS UPDATED (72_F.en.tmp) ****
----------------------
UHF SPIN CONTAMINATION
----------------------

Warning: in a DFT calculation there is little theoretical justification to 
         calculate <S**2> as in Hartree-Fock theory. We will do it anyways
         but you should keep in mind that the values have only limited relevance

Expectation value of <S**2>     :     0.751897
Ideal value S*(S+1) for S=0.5   :     0.750000
Deviation                       :     0.001897

             **** THE GBW FILE WAS UPDATED (72_F.gbw) ****
             **** DENSITY FILE WAS UPDATED (72_F.scfp) ****
----------------
ORBITAL ENERGIES
----------------
                 SPIN UP ORBITALS
  NO   OCC          E(Eh)            E(eV) 
   0   1.0000     -25.015108      -680.6957 
   1   1.0000      -1.370210       -37.2853 
   2   1.0000      -0.672866       -18.3096 
   3   1.0000      -0.597299       -16.2533 
   4   1.0000      -0.597299       -16.2533 
   5   0.0000       0.150631         4.0989 
   6   0.0000       0.150714         4.1011 
   7   0.0000       0.157768         4.2931 
   8   0.0000       0.157768         4.2931 
   9   0.0000       0.778300        21.1786 
  10   0.0000       0.782907        21.3040 
  11   0.0000       0.782907        21.3040 
  12   0.0000       0.795130        21.6366 
  13   0.0000       0.795130        21.6366 
  14   0.0000       0.957135        26.0450 
  15   0.0000       0.987027        26.8584 
  16   0.0000       0.987027        26.8584 
  17   0.0000       1.425406        38.7873 
  18   0.0000       2.538644        69.0800 
  19   0.0000       2.554587        69.5138 
  20   0.0000       2.554587        69.5138 
  21   0.0000       2.601650        70.7945 
  22   0.0000       2.601650        70.7945 
  23   0.0000       2.676480        72.8307 
  24   0.0000       2.680602        72.9429 
  25   0.0000       2.680602        72.9429 
  26   0.0000       2.693640        73.2977 
  27   0.0000       2.693640        73.2977 
  28   0.0000       2.717892        73.9576 
  29   0.0000       2.717892        73.9576 
  30   0.0000       4.655798       126.6907 
  31   0.0000       4.738712       128.9469 
  32   0.0000       4.738712       128.9469 
  33   0.0000       8.267356       224.9662 
  34   0.0000       8.278089       225.2583 
  35   0.0000       8.278089       225.2583 
  36   0.0000       8.308565       226.0875 
  37   0.0000       8.308565       226.0875 
  38   0.0000       8.359419       227.4714 
  39   0.0000       8.359419       227.4714 
  40   0.0000       8.637572       235.0403 
  41   0.0000       8.662211       235.7107 
  42   0.0000       8.662211       235.7107 
  43   0.0000       8.736035       237.7196 
  44   0.0000       8.736035       237.7196 
  45   0.0000       9.882036       268.9039 

                 SPIN DOWN ORBITALS
  NO   OCC          E(Eh)            E(eV) 
   0   1.0000     -24.984579      -679.8650 
   1   1.0000      -1.278539       -34.7908 
   2   1.0000      -0.560986       -15.2652 
   3   1.0000      -0.560986       -15.2652 
   4   0.0000      -0.163627        -4.4525 
   5   0.0000       0.141627         3.8539 
   6   0.0000       0.143499         3.9048 
   7   0.0000       0.162191         4.4134 
   8   0.0000       0.162191         4.4134 
   9   0.0000       0.762422        20.7466 
  10   0.0000       0.782852        21.3025 
  11   0.0000       0.782852        21.3025 
  12   0.0000       0.795971        21.6595 
  13   0.0000       0.795971        21.6595 
  14   0.0000       0.998194        27.1622 
  15   0.0000       0.998194        27.1622 
  16   0.0000       1.003345        27.3024 
  17   0.0000       1.457259        39.6540 
  18   0.0000       2.613695        71.1223 
  19   0.0000       2.613695        71.1223 
  20   0.0000       2.616240        71.1915 
  21   0.0000       2.616240        71.1915 
  22   0.0000       2.626425        71.4687 
  23   0.0000       2.691493        73.2393 
  24   0.0000       2.701904        73.5225 
  25   0.0000       2.701904        73.5225 
  26   0.0000       2.708345        73.6978 
  27   0.0000       2.708345        73.6978 
  28   0.0000       2.716730        73.9260 
  29   0.0000       2.716730        73.9260 
  30   0.0000       4.777217       129.9947 
  31   0.0000       4.777217       129.9947 
  32   0.0000       4.811467       130.9267 
  33   0.0000       8.371304       227.7948 
  34   0.0000       8.371304       227.7948 
  35   0.0000       8.373051       227.8423 
  36   0.0000       8.373052       227.8423 
  37   0.0000       8.378224       227.9831 
  38   0.0000       8.378224       227.9831 
  39   0.0000       8.388506       228.2628 
  40   0.0000       8.771256       238.6780 
  41   0.0000       8.771256       238.6780 
  42   0.0000       8.786111       239.0822 
  43   0.0000       8.786114       239.0823 
  44   0.0000       8.816842       239.9185 
  45   0.0000       9.952046       270.8089 

                    ********************************
                    * MULLIKEN POPULATION ANALYSIS *
                    ********************************

--------------------------------------------
MULLIKEN ATOMIC CHARGES AND SPIN POPULATIONS
--------------------------------------------
   0 F :   -0.000000    1.000000
Sum of atomic charges         :   -0.0000000
Sum of atomic spin populations:    1.0000000

-----------------------------------------------------
MULLIKEN REDUCED ORBITAL CHARGES AND SPIN POPULATIONS
-----------------------------------------------------
CHARGE
  0 F s       :     3.999676  s :     3.999676
      pz      :     1.998139  p :     4.999817
      px      :     1.001922
      py      :     1.999756
      dz2     :     0.000080  d :     0.000324
      dxz     :     0.000002
      dyz     :     0.000000
      dx2y2   :     0.000242
      dxy     :     0.000000
      f0      :     0.000020  f :     0.000183
      f+1     :     0.000028
      f-1     :     0.000003
      f+2     :     0.000034
      f-2     :     0.000000
      f+3     :     0.000046
      f-3     :     0.000051

SPIN
  0 F s       :    -0.000173  s :    -0.000173
      pz      :     0.001755  p :     0.999822
      px      :     0.997929
      py      :     0.000138
      dz2     :     0.000043  d :     0.000173
      dxz     :     0.000001
      dyz     :     0.000000
      dx2y2   :     0.000129
      dxy     :     0.000000
      f0      :     0.000019  f :     0.000178
      f+1     :     0.000028
      f-1     :     0.000003
      f+2     :     0.000032
      f-2     :     0.000000
      f+3     :     0.000046
      f-3     :     0.000048


                     *******************************
                     * LOEWDIN POPULATION ANALYSIS *
                     *******************************

-------------------------------------------
LOEWDIN ATOMIC CHARGES AND SPIN POPULATIONS
-------------------------------------------
   0 F :   -0.000000    1.000000

----------------------------------------------------
LOEWDIN REDUCED ORBITAL CHARGES AND SPIN POPULATIONS
----------------------------------------------------
CHARGE
  0 F s       :     3.999676  s :     3.999676
      pz      :     1.998139  p :     4.999817
      px      :     1.001922
      py      :     1.999756
      dz2     :     0.000080  d :     0.000324
      dxz     :     0.000002
      dyz     :     0.000000
      dx2y2   :     0.000242
      dxy     :     0.000000
      f0      :     0.000020  f :     0.000183
      f+1     :     0.000028
      f-1     :     0.000003
      f+2     :     0.000034
      f-2     :     0.000000
      f+3     :     0.000046
      f-3     :     0.000051

SPIN
  0 F s       :    -0.000173  s :    -0.000173
      pz      :     0.001755  p :     0.999822
      px      :     0.997929
      py      :     0.000138
      dz2     :     0.000043  d :     0.000173
      dxz     :     0.000001
      dyz     :     0.000000
      dx2y2   :     0.000129
      dxy     :     0.000000
      f0      :     0.000019  f :     0.000178
      f+1     :     0.000028
      f-1     :     0.000003
      f+2     :     0.000032
      f-2     :     0.000000
      f+3     :     0.000046
      f-3     :     0.000048


                      *****************************
                      * MAYER POPULATION ANALYSIS *
                      *****************************

  NA   - Mulliken gross atomic population
  ZA   - Total nuclear charge
  QA   - Mulliken gross atomic charge
  VA   - Mayer's total valence
  BVA  - Mayer's bonded valence
  FA   - Mayer's free valence

  ATOM       NA         ZA         QA         VA         BVA        FA
  0 F      9.0000     9.0000    -0.0000     1.0038     0.0000     1.0038

  Mayer bond orders larger than 0.100000


-------
TIMINGS
-------

Total SCF time: 0 days 0 hours 0 min 1 sec 

Total time                  ....       1.406 sec
Sum of individual times     ....       1.210 sec  ( 86.1%)

Fock matrix formation       ....       1.029 sec  ( 73.2%)
  XC integration            ....       0.065 sec  (  6.3% of F)
    Basis function eval.    ....       0.003 sec  (  5.3% of XC)
    Density eval.           ....       0.006 sec  ( 10.0% of XC)
    XC-Functional eval.     ....       0.004 sec  (  6.8% of XC)
    XC-Potential eval.      ....       0.010 sec  ( 14.7% of XC)
Diagonalization             ....       0.006 sec  (  0.4%)
Density matrix formation    ....       0.002 sec  (  0.1%)
Population analysis         ....       0.003 sec  (  0.2%)
Initial guess               ....       0.105 sec  (  7.5%)
Orbital Transformation      ....       0.000 sec  (  0.0%)
Orbital Orthonormalization  ....       0.000 sec  (  0.0%)
DIIS solution               ....       0.004 sec  (  0.3%)
Grid generation             ....       0.061 sec  (  4.4%)

-------------------------   --------------------
FINAL SINGLE POINT ENERGY       -99.741144416432
-------------------------   --------------------


                            ***************************************
                            *     ORCA property calculations      *
                            ***************************************

                                    ---------------------
                                    Active property flags
                                    ---------------------
   (+) Dipole Moment


------------------------------------------------------------------------------
                       ORCA ELECTRIC PROPERTIES CALCULATION
------------------------------------------------------------------------------

Dipole Moment Calculation                       ... on
Quadrupole Moment Calculation                   ... off
Polarizability Calculation                      ... off
GBWName                                         ... 72_F.gbw
Electron density file                           ... 72_F.scfp
The origin for moment calculation is the CENTER OF MASS  = ( 0.000000,  0.000000  0.000000)

-------------
DIPOLE MOMENT
-------------
                                X             Y             Z
Electronic contribution:     -0.00000       0.00000      -0.00000
Nuclear contribution   :      0.00000       0.00000       0.00000
                        -----------------------------------------
Total Dipole Moment    :     -0.00000       0.00000      -0.00000
                        -----------------------------------------
Magnitude (a.u.)       :      0.00000
Magnitude (Debye)      :      0.00000



--------------------
Rotational spectrum 
--------------------
 
Rotational constants in cm-1:     0.000000     0.000000     0.000000 
Rotational constants in MHz :     0.000000     0.000000     0.000000 

 Dipole components along the rotational axes: 
x,y,z [a.u.] :    -0.000000     0.000000    -0.000000 
x,y,z [Debye]:    -0.000000     0.000000    -0.000000 

 

Timings for individual modules:

Sum of individual times         ...        2.458 sec (=   0.041 min)
GTO integral calculation        ...        0.673 sec (=   0.011 min)  27.4 %
SCF iterations                  ...        1.785 sec (=   0.030 min)  72.6 %
                             ****ORCA TERMINATED NORMALLY****
TOTAL RUN TIME: 0 days 0 hours 0 minutes 2 seconds 889 msec
