
                                 *****************
                                 * O   R   C   A *
                                 *****************

           --- An Ab Initio, DFT and Semiempirical electronic structure package ---

                  #######################################################
                  #                        -***-                        #
                  #          Department of theory and spectroscopy      #
                  #               Directorship: Frank Neese             #
                  #        Max Planck Institute fuer Kohlenforschung    #
                  #                Kaiser Wilhelm Platz 1               #
                  #                 D-45470 Muelheim/Ruhr               #
                  #                      Germany                        #
                  #                                                     #
                  #                  All rights reserved                #
                  #                        -***-                        #
                  #######################################################


                         Program Version 4.2.0 -  RELEASE  -


 With contributions from (in alphabetic order):
   Daniel Aravena         : Magnetic Suceptibility
   Michael Atanasov       : Ab Initio Ligand Field Theory (pilot matlab implementation)
   Alexander A. Auer      : GIAO ZORA, VPT2
   Ute Becker             : Parallelization
   Giovanni Bistoni       : ED, misc. LED, open-shell LED, HFLED
   Martin Brehm           : Molecular dynamics
   Dmytro Bykov           : SCF Hessian
   Vijay G. Chilkuri      : MRCI spin determinant printing, contributions to CSF-ICE
   Dipayan Datta          : RHF DLPNO-CCSD density
   Achintya Kumar Dutta   : EOM-CC, STEOM-CC
   Dmitry Ganyushin       : Spin-Orbit,Spin-Spin,Magnetic field MRCI
   Miquel Garcia          : C-PCM Hessian, Gaussian charge scheme
   Yang Guo               : DLPNO-NEVPT2, CIM, IAO-localization
   Andreas Hansen         : Spin unrestricted coupled pair/coupled cluster methods
   Benjamin Helmich-Paris : CASSCF linear response (MC-RPA)
   Lee Huntington         : MR-EOM, pCC
   Robert Izsak           : Overlap fitted RIJCOSX, COSX-SCS-MP3, EOM
   Christian Kollmar      : KDIIS, OOCD, Brueckner-CCSD(T), CCSD density
   Simone Kossmann        : Meta GGA functionals, TD-DFT gradient, OOMP2, MP2 Hessian
   Martin Krupicka        : AUTO-CI
   Lucas Lang             : DCDCAS
   Dagmar Lenk            : GEPOL surface, SMD
   Dimitrios Liakos       : Extrapolation schemes; Compound Job, initial MDCI parallelization
   Dimitrios Manganas     : Further ROCIS development; embedding schemes
   Dimitrios Pantazis     : SARC Basis sets
   Taras Petrenko         : DFT Hessian,TD-DFT gradient, ASA, ECA, R-Raman, ABS, FL, XAS/XES, NRVS
   Peter Pinski           : DLPNO-MP2, DLPNO-MP2 Gradient
   Christoph Reimann      : Effective Core Potentials
   Marius Retegan         : Local ZFS, SOC
   Christoph Riplinger    : Optimizer, TS searches, QM/MM, DLPNO-CCSD(T), (RO)-DLPNO pert. Triples
   Tobias Risthaus        : Range-separated hybrids, TD-DFT gradient, RPA, STAB
   Michael Roemelt        : Original ROCIS implementation
   Masaaki Saitow         : Open-shell DLPNO-CCSD energy and density
   Barbara Sandhoefer     : DKH picture change effects
   Avijit Sen             : IP-ROCIS
   Kantharuban Sivalingam : CASSCF convergence, NEVPT2, FIC-MRCI
   Bernardo de Souza      : ESD, SOC TD-DFT
   Georgi Stoychev        : AutoAux, RI-MP2 NMR
   Willem Van den Heuvel  : Paramagnetic NMR
   Boris Wezisla          : Elementary symmetry handling
   Frank Wennmohs         : Technical directorship


 We gratefully acknowledge several colleagues who have allowed us to
 interface, adapt or use parts of their codes:
   Stefan Grimme, W. Hujo, H. Kruse,             : VdW corrections, initial TS optimization,
                  C. Bannwarth                     DFT functionals, gCP, sTDA/sTD-DF
   Ed Valeev, F. Pavosevic, A. Kumar             : LibInt (2-el integral package), F12 methods
   Garnet Chan, S. Sharma, J. Yang, R. Olivares  : DMRG
   Ulf Ekstrom                                   : XCFun DFT Library
   Mihaly Kallay                                 : mrcc  (arbitrary order and MRCC methods)
   Andreas Klamt, Michael Diedenhofen            : otool_cosmo (COSMO solvation model)
   Jiri Pittner, Ondrej Demel                    : Mk-CCSD
   Frank Weinhold                                : gennbo (NPA and NBO analysis)
   Christopher J. Cramer and Donald G. Truhlar   : smd solvation model
   Lars Goerigk                                  : TD-DFT with DH, B97 family of functionals
   V. Asgeirsson, H. Jonsson                     : NEB implementation
   FAccTs GmbH                                   : IRC, NEB, NEB-TS, Multilevel, MM, QM/MM, CI optimization
   S Lehtola, MJT Oliveira, MAL Marques          : LibXC Library


 Your calculation uses the libint2 library for the computation of 2-el integrals
 For citations please refer to: http://libint.valeyev.net

 Your ORCA version has been built with support for libXC version: 4.2.3
 For citations please refer to: https://tddft.org/programs/libxc/

 This ORCA versions uses:
   CBLAS   interface :  Fast vector & matrix operations
   LAPACKE interface :  Fast linear algebra routines
   SCALAPACK package :  Parallel linear algebra routines


Your calculation utilizes the DFT-NL dispersion correction.
Cite in your paper:
Vydrov, O. A.; Van Voorhis, T. J. Chem. Phys. 2010, 133, 244103
Hujo, W.; Grimme, S. J. Chem. Theory Comput. 2011, 7, 3866 
   

----- Orbital basis set information -----
Your calculation utilizes the basis: aug-cc-pVTZ 
    H, B-Ne : Obtained from the ccRepo (grant-hill.group.shef.ac.uk/ccrepo) Feb. 2017
              R. A. Kendall, T. H. Dunning, Jr., R. J. Harrison, J. Chem. Phys. 96, 6796 (1992)
         He : Obtained from the ccRepo (grant-hill.group.shef.ac.uk/ccrepo) Feb. 2017
              D. E. Woon, T. H. Dunning, Jr., J. Chem. Phys. 100, 2975 (1994)
  Li-Be, Na : Obtained from the ccRepo (grant-hill.group.shef.ac.uk/ccrepo) Feb. 2017
              B. P. Prascher, D. E. Woon, K. A. Peterson, T. H. Dunning, Jr., A. K. Wilson, Theor. Chem. Acc. 128, 69 (2011)
         Mg : Obtained from the Peterson Research Group Website (tyr0.chem.wsu.edu/~kipeters) Feb. 2017
              B. P. Prascher, D. E. Woon, K. A. Peterson, T. H. Dunning, Jr., A. K. Wilson, Theor. Chem. Acc. 128, 69 (2011)
      Al-Ar : Obtained from the ccRepo (grant-hill.group.shef.ac.uk/ccrepo) Feb. 2017
              D. E. Woon, T. H. Dunning, Jr., J. Chem. Phys. 98, 1358 (1993)
      Sc-Zn : Obtained from the ccRepo (grant-hill.group.shef.ac.uk/ccrepo) Feb. 2017
              N. B. Balabanov, K. A. Peterson, J. Chem. Phys. 123, 064107 (2005)
              N. B. Balabanov, K. A. Peterson, J. Chem. Phys. 125, 074110 (2006)
      Ga-Kr : Obtained from the ccRepo (grant-hill.group.shef.ac.uk/ccrepo) Feb. 2017
              A. K. Wilson, D. E. Woon, K. A. Peterson, T. H. Dunning, Jr., J. Chem. Phys. 110, 7667 (1999)
     Ag, Au : Obtained from the Peterson Research Group Website (tyr0.chem.wsu.edu/~kipeters) Feb. 2017
              K. A. Peterson, C. Puzzarini, Theor. Chem. Acc. 114, 283 (2005)

----- AuxJK basis set information -----
Your calculation utilizes the auxiliary basis: def2/JK
   H-Ba, Hf-Rn: F. Weigend, J. Comput. Chem. 29, 167 (2008).

================================================================================
                                        WARNINGS
                       Please study these warnings very carefully!
================================================================================


WARNING: your system is open-shell and RHF/RKS was chosen
  ===> : WILL SWITCH to UHF/UKS


INFO   : the flag for use of LIBINT has been found!

================================================================================
                                       INPUT FILE
================================================================================
NAME = 73_Cl.in
|  1> #
|  2> # 73_Cl wb97m-v/aug-cc-pvtz
|  3> #
|  4> ! wb97m-v aug-cc-pvtz def2/jk grid4 nofinalgrid
|  5> 
|  6> *xyz 0 2
|  7> Cl 0.0 0.0 0.0
|  8> *
|  9> 
| 10> %pal
| 11> nprocs 24
| 12> end
| 13> 
| 14> 
| 15>                          ****END OF INPUT****
================================================================================

                       ****************************
                       * Single Point Calculation *
                       ****************************

---------------------------------
CARTESIAN COORDINATES (ANGSTROEM)
---------------------------------
  Cl     0.000000    0.000000    0.000000

----------------------------
CARTESIAN COORDINATES (A.U.)
----------------------------
  NO LB      ZA    FRAG     MASS         X           Y           Z
   0 Cl   17.0000    0    35.453    0.000000    0.000000    0.000000

--------------------------------
INTERNAL COORDINATES (ANGSTROEM)
--------------------------------
 Cl     0   0   0     0.000000000000     0.00000000     0.00000000

---------------------------
INTERNAL COORDINATES (A.U.)
---------------------------
 Cl     0   0   0     0.000000000000     0.00000000     0.00000000

---------------------
BASIS SET INFORMATION
---------------------
There are 1 groups of distinct atoms

 Group   1 Type Cl  : 42s17p3d2f contracted to 6s5p3d2f pattern {131313111/77111/111/11}

Atom   0Cl   basis set group =>   1
----------------------------------
AUXILIARY/JK BASIS SET INFORMATION
----------------------------------
There are 1 groups of distinct atoms

 Group   1 Type Cl  : 16s12p10d4f1g contracted to 13s11p9d4f1g pattern {4111111111111/21111111111/211111111/1111/1}

Atom   0Cl   basis set group =>   1


           ************************************************************
           *        Program running with 24 parallel MPI-processes    *
           *              working on a common directory               *
           ************************************************************
------------------------------------------------------------------------------
                           ORCA GTO INTEGRAL CALCULATION
------------------------------------------------------------------------------

                         BASIS SET STATISTICS AND STARTUP INFO

 # of primitive gaussian shells          ...   64
 # of primitive gaussian functions       ...  122
 # of contracted shells                  ...   16
 # of contracted basis functions         ...   50
 Highest angular momentum                ...    3
 Maximum contraction depth               ...   13
 Integral package used                   ... LIBINT
 Integral threshhold            Thresh   ...  1.000e-10
 Primitive cut-off              TCut     ...  1.000e-11


------------------------------ INTEGRAL EVALUATION ----------------------------


 * One electron integrals 
 Pre-screening matrix                    ... done
 Shell pair data                         ... done (   0.000 sec)



           ************************************************************
           *        Program running with 24 parallel MPI-processes    *
           *              working on a common directory               *
           ************************************************************
-------------------------------------------------------------------------------
                                 ORCA SCF
-------------------------------------------------------------------------------

------------
SCF SETTINGS
------------
Hamiltonian:
 Density Functional     Method          .... DFT(GTOs)
 Exchange Functional    Exchange        .... WB97M-V
 Correlation Functional Correlation     .... WB97M-V
 Gradients option       PostSCFGGA      .... off
 Hybrid DFT is turned on
   Fraction HF Exchange ScalHFX         ....  0.150000
   Scaling of DF-GGA-X  ScalDFX         ....  0.000000
   Scaling of DF-GGA-C  ScalDFC         ....  1.000000
   Scaling of DF-LDA-C  ScalLDAC        ....  1.000000
   Perturbative correction              ....  0.000000
   Density functional embedding theory  .... OFF
 Long-range corrected/Screened/Range-Separated Hybrid DFT is turned on
   Amount of maximum screened exact exchange              ....  0.850000
   Range separation parameter mu (erf(mu*r12)/r12)        ....  0.300000
   NL short-range parameter             ....  6.000000
   NL long-range parameter              ....  0.010000


General Settings:
 Integral files         IntName         .... 73_Cl
 Hartree-Fock type      HFTyp           .... UHF
 Total Charge           Charge          ....    0
 Multiplicity           Mult            ....    2
 Number of Electrons    NEL             ....   17
 Basis Dimension        Dim             ....   50
 Nuclear Repulsion      ENuc            ....      0.0000000000 Eh

Convergence Acceleration:
 DIIS                   CNVDIIS         .... on
   Start iteration      DIISMaxIt       ....    12
   Startup error        DIISStart       ....  0.200000
   # of expansion vecs  DIISMaxEq       ....     5
   Bias factor          DIISBfac        ....   1.050
   Max. coefficient     DIISMaxC        ....  10.000
 Newton-Raphson         CNVNR           .... off
 SOSCF                  CNVSOSCF        .... off
 Level Shifting         CNVShift        .... on
   Level shift para.    LevelShift      ....    0.2500
   Turn off err/grad.   ShiftErr        ....    0.0010
 Zerner damping         CNVZerner       .... off
 Static damping         CNVDamp         .... on
   Fraction old density DampFac         ....    0.7000
   Max. Damping (<1)    DampMax         ....    0.9800
   Min. Damping (>=0)   DampMin         ....    0.0000
   Turn off err/grad.   DampErr         ....    0.1000
 Fernandez-Rico         CNVRico         .... off

SCF Procedure:
 Maximum # iterations   MaxIter         ....   125
 SCF integral mode      SCFMode         .... Direct
   Integral package                     .... LIBINT
 Reset frequency        DirectResetFreq ....    20
 Integral Threshold     Thresh          ....  1.000e-10 Eh
 Primitive CutOff       TCut            ....  1.000e-11 Eh

Convergence Tolerance:
 Convergence Check Mode ConvCheckMode   .... Total+1el-Energy
 Convergence forced     ConvForced      .... 0
 Energy Change          TolE            ....  1.000e-06 Eh
 1-El. energy change                    ....  1.000e-03 Eh
 DIIS Error             TolErr          ....  1.000e-06


Diagonalization of the overlap matrix:
Smallest eigenvalue                        ... 1.225e-02
Time for diagonalization                   ...    0.002 sec
Threshold for overlap eigenvalues          ... 1.000e-08
Number of eigenvalues below threshold      ... 0
Time for construction of square roots      ...    0.001 sec
Total time needed                          ...    0.003 sec

-------------------
DFT GRID GENERATION
-------------------

General Integration Accuracy     IntAcc      ...  4.670
Radial Grid Type                 RadialGrid  ... Gauss-Chebyshev
Angular Grid (max. acc.)         AngularGrid ... Lebedev-302
Angular grid pruning method      GridPruning ... 3 (G Style)
Weight generation scheme         WeightScheme... Becke
Basis function cutoff            BFCut       ...    1.0000e-10
Integration weight cutoff        WCut        ...    1.0000e-14
Grids for H and He will be reduced by one unit

# of grid points (after initial pruning)     ...   6738 (   0.0 sec)
# of grid points (after weights+screening)   ...   6738 (   0.0 sec)
Grid point division into batches done        ...    0.0 sec
Reduced shell lists constructed in    0.0 sec

Total number of grid points                  ...     6738
Total number of batches                      ...      106
Average number of points per batch           ...       63
Average number of grid points per atom       ...     6738
Average number of shells per batch           ...     3.33 (20.83%)
Average number of basis functions per batch  ...    10.00 (20.00%)
Average number of large shells per batch     ...     1.67 (50.00%)
Average number of large basis fcns per batch ...     3.33 (33.33%)
Maximum spatial batch extension              ...  17.78, 17.78, 17.78 au
Average spatial batch extension              ...   0.72,  0.72,  0.74 au

Time for grid setup =    0.061 sec

------------------------------
INITIAL GUESS: MODEL POTENTIAL
------------------------------
Loading Hartree-Fock densities                     ... done
Calculating cut-offs                               ... done
Setting up the integral package                    ... done
Initializing the effective Hamiltonian             ... done
Starting the Coulomb interaction                   ... done (   0.0 sec)
Reading the grid                                   ... done
Mapping shells                                     ... done
Starting the XC term evaluation                    ... done (   0.0 sec)
  promolecular density results
     # of electrons  =     17.000000665
     EX              =    -27.332812851
     EC              =     -0.649439552
     EX+EC           =    -27.982252403
Transforming the Hamiltonian                       ... done (   0.0 sec)
Diagonalizing the Hamiltonian                      ... done (   0.0 sec)
Back transforming the eigenvectors                 ... done (   0.0 sec)
Now organizing SCF variables                       ... done
                      ------------------
                      INITIAL GUESS DONE (   0.2 sec)
                      ------------------
--------------
SCF ITERATIONS
--------------
ITER       Energy         Delta-E        Max-DP      RMS-DP      [F,P]     Damp
               ***  Starting incremental Fock matrix formation  ***
  0   -460.2026182644   0.000000000000 0.01057723  0.00030164  0.0514572 0.7000
  1   -460.2038391171  -0.001220852779 0.00748078  0.00022856  0.0360230 0.7000
                               ***Turning on DIIS***
  2   -460.2047651423  -0.000926025136 0.01725488  0.00054604  0.0250474 0.0000
  3   -460.2071152399  -0.002350097631 0.00165342  0.00007258  0.0021893 0.0000
  4   -460.2072034275  -0.000088187597 0.00102802  0.00004188  0.0007045 0.0000
  5   -460.2072464698  -0.000043042282 0.00022609  0.00000956  0.0001715 0.0000
  6   -460.2072527670  -0.000006297223 0.00003695  0.00000137  0.0000447 0.0000
                 **** Energy Check signals convergence ****

               *****************************************************
               *                     SUCCESS                       *
               *           SCF CONVERGED AFTER   7 CYCLES          *
               *****************************************************


Setting up the DFT-NL grid :

General Integration Accuracy     IntAcc      ...  4.340
Radial Grid Type                 RadialGrid  ... Gauss-Chebyshev
Angular Grid (max. acc.)         AngularGrid ... Lebedev-110
Angular grid pruning method      GridPruning ... 3 (G Style)
Weight generation scheme         WeightScheme... Becke
Basis function cutoff            BFCut       ...    1.0000e-10
Integration weight cutoff        WCut        ...    1.0000e-14
Grids for H and He will be reduced by one unit

# of grid points (after initial pruning)     ...   1844 (   0.0 sec)
# of grid points (after weights+screening)   ...   1844 (   0.0 sec)
Grid point division into batches done        ...    0.0 sec
Reduced shell lists constructed in    0.0 sec

Total number of grid points                  ...     1844
Total number of batches                      ...       29
Average number of points per batch           ...       63
Average number of grid points per atom       ...     1844
Average number of shells per batch           ...     9.33 (58.33%)
Average number of basis functions per batch  ...    30.67 (61.33%)
Average number of large shells per batch     ...     6.67 (71.43%)
Average number of large basis fcns per batch ...    24.00 (78.26%)
Maximum spatial batch extension              ...  16.21, 29.83, 29.83 au
Average spatial batch extension              ...   1.12,  2.06,  2.06 au

Final grid set up in    0.0 sec

-------------------------------------------------------------------------------
                         DFT-NL dispersion correction                          
-------------------------------------------------------------------------------

SC Energy -460.207252995 
NL    Energy 0.072915737 
SC+NL Energy -460.134337258 
NL done in    0.0 sec
-------------------------------------------------------------------------------

----------------
TOTAL SCF ENERGY
----------------

Total Energy       :         -460.13433726 Eh          -12520.89187 eV

Components:
Nuclear Repulsion  :            0.00000000 Eh               0.00000 eV
Electronic Energy  :         -460.13433726 Eh          -12520.89187 eV
One Electron Energy:         -634.83989444 Eh          -17274.87177 eV
Two Electron Energy:          174.70555718 Eh            4753.97990 eV

Virial components:
Potential Energy   :         -919.23373159 Eh          -25013.62150 eV
Kinetic Energy     :          459.09939433 Eh           12492.72964 eV
Virial Ratio       :            2.00225429


DFT components:
N(Alpha)           :        8.999999549240 electrons
N(Beta)            :        7.999999551533 electrons
N(Total)           :       16.999999100773 electrons
E(X)               :      -21.050024164477 Eh       
E(C)               :       -0.730887321103 Eh       
NL Energy, E(C,NL) :        0.072915736832 Eh       
E(XC)              :      -21.707995748748 Eh       
DFET-embed. en.    :        0.000000000000 Eh       

---------------
SCF CONVERGENCE
---------------

  Last Energy change         ...   -2.2770e-07  Tolerance :   1.0000e-06
  Last MAX-Density change    ...    4.7657e-06  Tolerance :   1.0000e-05
  Last RMS-Density change    ...    2.6034e-07  Tolerance :   1.0000e-06
  Last DIIS Error            ...    6.3689e-06  Tolerance :   1.0000e-06

             **** THE GBW FILE WAS UPDATED (73_Cl.gbw) ****
             **** DENSITY FILE WAS UPDATED (73_Cl.scfp) ****
             **** ENERGY FILE WAS UPDATED (73_Cl.en.tmp) ****
----------------------
UHF SPIN CONTAMINATION
----------------------

Warning: in a DFT calculation there is little theoretical justification to 
         calculate <S**2> as in Hartree-Fock theory. We will do it anyways
         but you should keep in mind that the values have only limited relevance

Expectation value of <S**2>     :     0.752201
Ideal value S*(S+1) for S=0.5   :     0.750000
Deviation                       :     0.002201

             **** THE GBW FILE WAS UPDATED (73_Cl.gbw) ****
             **** DENSITY FILE WAS UPDATED (73_Cl.scfp) ****
----------------
ORBITAL ENERGIES
----------------
                 SPIN UP ORBITALS
  NO   OCC          E(Eh)            E(eV) 
   0   1.0000    -101.948208     -2774.1518 
   1   1.0000      -9.702337      -264.0140 
   2   1.0000      -7.419332      -201.8903 
   3   1.0000      -7.396439      -201.2673 
   4   1.0000      -7.396439      -201.2673 
   5   1.0000      -0.968601       -26.3570 
   6   1.0000      -0.504778       -13.7357 
   7   1.0000      -0.460926       -12.5424 
   8   1.0000      -0.460926       -12.5424 
   9   0.0000       0.079532         2.1642 
  10   0.0000       0.084786         2.3071 
  11   0.0000       0.084786         2.3071 
  12   0.0000       0.090067         2.4509 
  13   0.0000       0.274252         7.4628 
  14   0.0000       0.279170         7.5966 
  15   0.0000       0.279170         7.5966 
  16   0.0000       0.292938         7.9713 
  17   0.0000       0.292938         7.9713 
  18   0.0000       0.527711        14.3598 
  19   0.0000       0.545645        14.8478 
  20   0.0000       0.545645        14.8478 
  21   0.0000       0.743587        20.2340 
  22   0.0000       0.753206        20.4958 
  23   0.0000       0.753206        20.4958 
  24   0.0000       0.771547        20.9948 
  25   0.0000       0.780943        21.2505 
  26   0.0000       0.780943        21.2505 
  27   0.0000       1.038796        28.2671 
  28   0.0000       1.041929        28.3523 
  29   0.0000       1.041929        28.3523 
  30   0.0000       1.050808        28.5940 
  31   0.0000       1.050808        28.5940 
  32   0.0000       1.067297        29.0426 
  33   0.0000       1.067297        29.0426 
  34   0.0000       2.180055        59.3223 
  35   0.0000       2.193755        59.6951 
  36   0.0000       2.193755        59.6951 
  37   0.0000       2.234083        60.7925 
  38   0.0000       2.234083        60.7925 
  39   0.0000       2.317599        63.0651 
  40   0.0000       2.374905        64.6244 
  41   0.0000       2.374905        64.6244 
  42   0.0000       2.722257        74.0764 
  43   0.0000       2.729263        74.2670 
  44   0.0000       2.729263        74.2670 
  45   0.0000       2.747102        74.7524 
  46   0.0000       2.747102        74.7524 
  47   0.0000       2.777220        75.5720 
  48   0.0000       2.777220        75.5720 
  49   0.0000       4.681213       127.3823 

                 SPIN DOWN ORBITALS
  NO   OCC          E(Eh)            E(eV) 
   0   1.0000    -101.941200     -2773.9611 
   1   1.0000      -9.696007      -263.8418 
   2   1.0000      -7.395856      -201.2515 
   3   1.0000      -7.391926      -201.1445 
   4   1.0000      -7.391926      -201.1445 
   5   1.0000      -0.917170       -24.9575 
   6   1.0000      -0.443053       -12.0561 
   7   1.0000      -0.443053       -12.0561 
   8   0.0000      -0.158246        -4.3061 
   9   0.0000       0.060122         1.6360 
  10   0.0000       0.073476         1.9994 
  11   0.0000       0.084888         2.3099 
  12   0.0000       0.084893         2.3101 
  13   0.0000       0.263733         7.1765 
  14   0.0000       0.282003         7.6737 
  15   0.0000       0.282012         7.6739 
  16   0.0000       0.294979         8.0268 
  17   0.0000       0.294980         8.0268 
  18   0.0000       0.525944        14.3117 
  19   0.0000       0.548208        14.9175 
  20   0.0000       0.548209        14.9175 
  21   0.0000       0.783060        21.3081 
  22   0.0000       0.783066        21.3083 
  23   0.0000       0.783393        21.3172 
  24   0.0000       0.790437        21.5089 
  25   0.0000       0.791643        21.5417 
  26   0.0000       0.791643        21.5417 
  27   0.0000       1.037246        28.2249 
  28   0.0000       1.049548        28.5597 
  29   0.0000       1.049551        28.5597 
  30   0.0000       1.058929        28.8149 
  31   0.0000       1.058930        28.8149 
  32   0.0000       1.067752        29.0550 
  33   0.0000       1.067753        29.0550 
  34   0.0000       2.239828        60.9488 
  35   0.0000       2.244240        61.0689 
  36   0.0000       2.244240        61.0689 
  37   0.0000       2.244756        61.0829 
  38   0.0000       2.244758        61.0830 
  39   0.0000       2.396272        65.2059 
  40   0.0000       2.396273        65.2059 
  41   0.0000       2.400659        65.3253 
  42   0.0000       2.782551        75.7171 
  43   0.0000       2.782552        75.7171 
  44   0.0000       2.783161        75.7337 
  45   0.0000       2.783161        75.7337 
  46   0.0000       2.785683        75.8023 
  47   0.0000       2.785683        75.8023 
  48   0.0000       2.792867        75.9978 
  49   0.0000       4.707974       128.1105 

                    ********************************
                    * MULLIKEN POPULATION ANALYSIS *
                    ********************************

--------------------------------------------
MULLIKEN ATOMIC CHARGES AND SPIN POPULATIONS
--------------------------------------------
   0 Cl:   -0.000000    1.000000
Sum of atomic charges         :   -0.0000000
Sum of atomic spin populations:    1.0000000

-----------------------------------------------------
MULLIKEN REDUCED ORBITAL CHARGES AND SPIN POPULATIONS
-----------------------------------------------------
CHARGE
  0 Cls       :     5.999113  s :     5.999113
      pz      :     3.581202  p :    10.999313
      px      :     3.994767
      py      :     3.423344
      dz2     :     0.000014  d :     0.000887
      dxz     :     0.000006
      dyz     :     0.000642
      dx2y2   :     0.000217
      dxy     :     0.000008
      f0      :     0.000078  f :     0.000687
      f+1     :     0.000017
      f-1     :     0.000191
      f+2     :     0.000146
      f-2     :     0.000129
      f+3     :     0.000066
      f-3     :     0.000061

SPIN
  0 Cls       :    -0.000673  s :    -0.000673
      pz      :     0.418361  p :     0.999417
      px      :     0.004864
      py      :     0.576193
      dz2     :     0.000011  d :     0.000673
      dxz     :     0.000004
      dyz     :     0.000487
      dx2y2   :     0.000165
      dxy     :     0.000006
      f0      :     0.000064  f :     0.000583
      f+1     :     0.000013
      f-1     :     0.000160
      f+2     :     0.000143
      f-2     :     0.000098
      f+3     :     0.000050
      f-3     :     0.000053


                     *******************************
                     * LOEWDIN POPULATION ANALYSIS *
                     *******************************

-------------------------------------------
LOEWDIN ATOMIC CHARGES AND SPIN POPULATIONS
-------------------------------------------
   0 Cl:   -0.000000    1.000000

----------------------------------------------------
LOEWDIN REDUCED ORBITAL CHARGES AND SPIN POPULATIONS
----------------------------------------------------
CHARGE
  0 Cls       :     5.999113  s :     5.999113
      pz      :     3.581202  p :    10.999313
      px      :     3.994767
      py      :     3.423344
      dz2     :     0.000014  d :     0.000887
      dxz     :     0.000006
      dyz     :     0.000642
      dx2y2   :     0.000217
      dxy     :     0.000008
      f0      :     0.000078  f :     0.000687
      f+1     :     0.000017
      f-1     :     0.000191
      f+2     :     0.000146
      f-2     :     0.000129
      f+3     :     0.000066
      f-3     :     0.000061

SPIN
  0 Cls       :    -0.000673  s :    -0.000673
      pz      :     0.418361  p :     0.999417
      px      :     0.004864
      py      :     0.576193
      dz2     :     0.000011  d :     0.000673
      dxz     :     0.000004
      dyz     :     0.000487
      dx2y2   :     0.000165
      dxy     :     0.000006
      f0      :     0.000064  f :     0.000583
      f+1     :     0.000013
      f-1     :     0.000160
      f+2     :     0.000143
      f-2     :     0.000098
      f+3     :     0.000050
      f-3     :     0.000053


                      *****************************
                      * MAYER POPULATION ANALYSIS *
                      *****************************

  NA   - Mulliken gross atomic population
  ZA   - Total nuclear charge
  QA   - Mulliken gross atomic charge
  VA   - Mayer's total valence
  BVA  - Mayer's bonded valence
  FA   - Mayer's free valence

  ATOM       NA         ZA         QA         VA         BVA        FA
  0 Cl    17.0000    17.0000    -0.0000     1.0044     0.0000     1.0044

  Mayer bond orders larger than 0.100000


-------
TIMINGS
-------

Total SCF time: 0 days 0 hours 0 min 2 sec 

Total time                  ....       2.174 sec
Sum of individual times     ....       1.961 sec  ( 90.2%)

Fock matrix formation       ....       1.774 sec  ( 81.6%)
  XC integration            ....       0.086 sec  (  4.9% of F)
    Basis function eval.    ....       0.006 sec  (  6.5% of XC)
    Density eval.           ....       0.008 sec  (  9.5% of XC)
    XC-Functional eval.     ....       0.004 sec  (  4.9% of XC)
    XC-Potential eval.      ....       0.011 sec  ( 12.5% of XC)
Diagonalization             ....       0.007 sec  (  0.3%)
Density matrix formation    ....       0.002 sec  (  0.1%)
Population analysis         ....       0.003 sec  (  0.1%)
Initial guess               ....       0.104 sec  (  4.8%)
Orbital Transformation      ....       0.000 sec  (  0.0%)
Orbital Orthonormalization  ....       0.000 sec  (  0.0%)
DIIS solution               ....       0.004 sec  (  0.2%)
Grid generation             ....       0.067 sec  (  3.1%)

-------------------------   --------------------
FINAL SINGLE POINT ENERGY      -460.134337257873
-------------------------   --------------------


                            ***************************************
                            *     ORCA property calculations      *
                            ***************************************

                                    ---------------------
                                    Active property flags
                                    ---------------------
   (+) Dipole Moment


------------------------------------------------------------------------------
                       ORCA ELECTRIC PROPERTIES CALCULATION
------------------------------------------------------------------------------

Dipole Moment Calculation                       ... on
Quadrupole Moment Calculation                   ... off
Polarizability Calculation                      ... off
GBWName                                         ... 73_Cl.gbw
Electron density file                           ... 73_Cl.scfp
The origin for moment calculation is the CENTER OF MASS  = ( 0.000000,  0.000000  0.000000)

-------------
DIPOLE MOMENT
-------------
                                X             Y             Z
Electronic contribution:     -0.00000      -0.00000      -0.00000
Nuclear contribution   :      0.00000       0.00000       0.00000
                        -----------------------------------------
Total Dipole Moment    :     -0.00000      -0.00000      -0.00000
                        -----------------------------------------
Magnitude (a.u.)       :      0.00000
Magnitude (Debye)      :      0.00000



--------------------
Rotational spectrum 
--------------------
 
Rotational constants in cm-1:     0.000000     0.000000     0.000000 
Rotational constants in MHz :     0.000000     0.000000     0.000000 

 Dipole components along the rotational axes: 
x,y,z [a.u.] :    -0.000000    -0.000000    -0.000000 
x,y,z [Debye]:    -0.000000    -0.000000    -0.000000 

 

Timings for individual modules:

Sum of individual times         ...        3.374 sec (=   0.056 min)
GTO integral calculation        ...        0.710 sec (=   0.012 min)  21.0 %
SCF iterations                  ...        2.664 sec (=   0.044 min)  79.0 %
                             ****ORCA TERMINATED NORMALLY****
TOTAL RUN TIME: 0 days 0 hours 0 minutes 3 seconds 836 msec
