
                                 *****************
                                 * O   R   C   A *
                                 *****************

           --- An Ab Initio, DFT and Semiempirical electronic structure package ---

                  #######################################################
                  #                        -***-                        #
                  #          Department of theory and spectroscopy      #
                  #               Directorship: Frank Neese             #
                  #        Max Planck Institute fuer Kohlenforschung    #
                  #                Kaiser Wilhelm Platz 1               #
                  #                 D-45470 Muelheim/Ruhr               #
                  #                      Germany                        #
                  #                                                     #
                  #                  All rights reserved                #
                  #                        -***-                        #
                  #######################################################


                         Program Version 4.2.0 -  RELEASE  -


 With contributions from (in alphabetic order):
   Daniel Aravena         : Magnetic Suceptibility
   Michael Atanasov       : Ab Initio Ligand Field Theory (pilot matlab implementation)
   Alexander A. Auer      : GIAO ZORA, VPT2
   Ute Becker             : Parallelization
   Giovanni Bistoni       : ED, misc. LED, open-shell LED, HFLED
   Martin Brehm           : Molecular dynamics
   Dmytro Bykov           : SCF Hessian
   Vijay G. Chilkuri      : MRCI spin determinant printing, contributions to CSF-ICE
   Dipayan Datta          : RHF DLPNO-CCSD density
   Achintya Kumar Dutta   : EOM-CC, STEOM-CC
   Dmitry Ganyushin       : Spin-Orbit,Spin-Spin,Magnetic field MRCI
   Miquel Garcia          : C-PCM Hessian, Gaussian charge scheme
   Yang Guo               : DLPNO-NEVPT2, CIM, IAO-localization
   Andreas Hansen         : Spin unrestricted coupled pair/coupled cluster methods
   Benjamin Helmich-Paris : CASSCF linear response (MC-RPA)
   Lee Huntington         : MR-EOM, pCC
   Robert Izsak           : Overlap fitted RIJCOSX, COSX-SCS-MP3, EOM
   Christian Kollmar      : KDIIS, OOCD, Brueckner-CCSD(T), CCSD density
   Simone Kossmann        : Meta GGA functionals, TD-DFT gradient, OOMP2, MP2 Hessian
   Martin Krupicka        : AUTO-CI
   Lucas Lang             : DCDCAS
   Dagmar Lenk            : GEPOL surface, SMD
   Dimitrios Liakos       : Extrapolation schemes; Compound Job, initial MDCI parallelization
   Dimitrios Manganas     : Further ROCIS development; embedding schemes
   Dimitrios Pantazis     : SARC Basis sets
   Taras Petrenko         : DFT Hessian,TD-DFT gradient, ASA, ECA, R-Raman, ABS, FL, XAS/XES, NRVS
   Peter Pinski           : DLPNO-MP2, DLPNO-MP2 Gradient
   Christoph Reimann      : Effective Core Potentials
   Marius Retegan         : Local ZFS, SOC
   Christoph Riplinger    : Optimizer, TS searches, QM/MM, DLPNO-CCSD(T), (RO)-DLPNO pert. Triples
   Tobias Risthaus        : Range-separated hybrids, TD-DFT gradient, RPA, STAB
   Michael Roemelt        : Original ROCIS implementation
   Masaaki Saitow         : Open-shell DLPNO-CCSD energy and density
   Barbara Sandhoefer     : DKH picture change effects
   Avijit Sen             : IP-ROCIS
   Kantharuban Sivalingam : CASSCF convergence, NEVPT2, FIC-MRCI
   Bernardo de Souza      : ESD, SOC TD-DFT
   Georgi Stoychev        : AutoAux, RI-MP2 NMR
   Willem Van den Heuvel  : Paramagnetic NMR
   Boris Wezisla          : Elementary symmetry handling
   Frank Wennmohs         : Technical directorship


 We gratefully acknowledge several colleagues who have allowed us to
 interface, adapt or use parts of their codes:
   Stefan Grimme, W. Hujo, H. Kruse,             : VdW corrections, initial TS optimization,
                  C. Bannwarth                     DFT functionals, gCP, sTDA/sTD-DF
   Ed Valeev, F. Pavosevic, A. Kumar             : LibInt (2-el integral package), F12 methods
   Garnet Chan, S. Sharma, J. Yang, R. Olivares  : DMRG
   Ulf Ekstrom                                   : XCFun DFT Library
   Mihaly Kallay                                 : mrcc  (arbitrary order and MRCC methods)
   Andreas Klamt, Michael Diedenhofen            : otool_cosmo (COSMO solvation model)
   Jiri Pittner, Ondrej Demel                    : Mk-CCSD
   Frank Weinhold                                : gennbo (NPA and NBO analysis)
   Christopher J. Cramer and Donald G. Truhlar   : smd solvation model
   Lars Goerigk                                  : TD-DFT with DH, B97 family of functionals
   V. Asgeirsson, H. Jonsson                     : NEB implementation
   FAccTs GmbH                                   : IRC, NEB, NEB-TS, Multilevel, MM, QM/MM, CI optimization
   S Lehtola, MJT Oliveira, MAL Marques          : LibXC Library


 Your calculation uses the libint2 library for the computation of 2-el integrals
 For citations please refer to: http://libint.valeyev.net

 Your ORCA version has been built with support for libXC version: 4.2.3
 For citations please refer to: https://tddft.org/programs/libxc/

 This ORCA versions uses:
   CBLAS   interface :  Fast vector & matrix operations
   LAPACKE interface :  Fast linear algebra routines
   SCALAPACK package :  Parallel linear algebra routines


Your calculation utilizes the DFT-NL dispersion correction.
Cite in your paper:
Vydrov, O. A.; Van Voorhis, T. J. Chem. Phys. 2010, 133, 244103
Hujo, W.; Grimme, S. J. Chem. Theory Comput. 2011, 7, 3866 
   

----- Orbital basis set information -----
Your calculation utilizes the basis: aug-cc-pVTZ 
    H, B-Ne : Obtained from the ccRepo (grant-hill.group.shef.ac.uk/ccrepo) Feb. 2017
              R. A. Kendall, T. H. Dunning, Jr., R. J. Harrison, J. Chem. Phys. 96, 6796 (1992)
         He : Obtained from the ccRepo (grant-hill.group.shef.ac.uk/ccrepo) Feb. 2017
              D. E. Woon, T. H. Dunning, Jr., J. Chem. Phys. 100, 2975 (1994)
  Li-Be, Na : Obtained from the ccRepo (grant-hill.group.shef.ac.uk/ccrepo) Feb. 2017
              B. P. Prascher, D. E. Woon, K. A. Peterson, T. H. Dunning, Jr., A. K. Wilson, Theor. Chem. Acc. 128, 69 (2011)
         Mg : Obtained from the Peterson Research Group Website (tyr0.chem.wsu.edu/~kipeters) Feb. 2017
              B. P. Prascher, D. E. Woon, K. A. Peterson, T. H. Dunning, Jr., A. K. Wilson, Theor. Chem. Acc. 128, 69 (2011)
      Al-Ar : Obtained from the ccRepo (grant-hill.group.shef.ac.uk/ccrepo) Feb. 2017
              D. E. Woon, T. H. Dunning, Jr., J. Chem. Phys. 98, 1358 (1993)
      Sc-Zn : Obtained from the ccRepo (grant-hill.group.shef.ac.uk/ccrepo) Feb. 2017
              N. B. Balabanov, K. A. Peterson, J. Chem. Phys. 123, 064107 (2005)
              N. B. Balabanov, K. A. Peterson, J. Chem. Phys. 125, 074110 (2006)
      Ga-Kr : Obtained from the ccRepo (grant-hill.group.shef.ac.uk/ccrepo) Feb. 2017
              A. K. Wilson, D. E. Woon, K. A. Peterson, T. H. Dunning, Jr., J. Chem. Phys. 110, 7667 (1999)
     Ag, Au : Obtained from the Peterson Research Group Website (tyr0.chem.wsu.edu/~kipeters) Feb. 2017
              K. A. Peterson, C. Puzzarini, Theor. Chem. Acc. 114, 283 (2005)

----- AuxJK basis set information -----
Your calculation utilizes the auxiliary basis: def2/JK
   H-Ba, Hf-Rn: F. Weigend, J. Comput. Chem. 29, 167 (2008).

================================================================================
                                        WARNINGS
                       Please study these warnings very carefully!
================================================================================


WARNING: your system is open-shell and RHF/RKS was chosen
  ===> : WILL SWITCH to UHF/UKS


INFO   : the flag for use of LIBINT has been found!

================================================================================
                                       INPUT FILE
================================================================================
NAME = 75_O.in
|  1> #
|  2> # 75_O wb97m-v/aug-cc-pvtz
|  3> #
|  4> ! wb97m-v aug-cc-pvtz def2/jk grid4 nofinalgrid
|  5> 
|  6> *xyz 0 3
|  7> O 0.0 0.0 0.0
|  8> *
|  9> 
| 10> %pal
| 11> nprocs 24
| 12> end
| 13> 
| 14> 
| 15>                          ****END OF INPUT****
================================================================================

                       ****************************
                       * Single Point Calculation *
                       ****************************

---------------------------------
CARTESIAN COORDINATES (ANGSTROEM)
---------------------------------
  O      0.000000    0.000000    0.000000

----------------------------
CARTESIAN COORDINATES (A.U.)
----------------------------
  NO LB      ZA    FRAG     MASS         X           Y           Z
   0 O     8.0000    0    15.999    0.000000    0.000000    0.000000

--------------------------------
INTERNAL COORDINATES (ANGSTROEM)
--------------------------------
 O      0   0   0     0.000000000000     0.00000000     0.00000000

---------------------------
INTERNAL COORDINATES (A.U.)
---------------------------
 O      0   0   0     0.000000000000     0.00000000     0.00000000

---------------------
BASIS SET INFORMATION
---------------------
There are 1 groups of distinct atoms

 Group   1 Type O   : 19s6p3d2f contracted to 5s4p3d2f pattern {88111/3111/111/11}

Atom   0O    basis set group =>   1
----------------------------------
AUXILIARY/JK BASIS SET INFORMATION
----------------------------------
There are 1 groups of distinct atoms

 Group   1 Type O   : 14s10p6d2f1g contracted to 10s8p4d2f1g pattern {5111111111/31111111/3111/11/1}

Atom   0O    basis set group =>   1


           ************************************************************
           *        Program running with 24 parallel MPI-processes    *
           *              working on a common directory               *
           ************************************************************
------------------------------------------------------------------------------
                           ORCA GTO INTEGRAL CALCULATION
------------------------------------------------------------------------------

                         BASIS SET STATISTICS AND STARTUP INFO

 # of primitive gaussian shells          ...   30
 # of primitive gaussian functions       ...   66
 # of contracted shells                  ...   14
 # of contracted basis functions         ...   46
 Highest angular momentum                ...    3
 Maximum contraction depth               ...    8
 Integral package used                   ... LIBINT
 Integral threshhold            Thresh   ...  1.000e-10
 Primitive cut-off              TCut     ...  1.000e-11


------------------------------ INTEGRAL EVALUATION ----------------------------


 * One electron integrals 
 Pre-screening matrix                    ... done
 Shell pair data                         ... done (   0.000 sec)



           ************************************************************
           *        Program running with 24 parallel MPI-processes    *
           *              working on a common directory               *
           ************************************************************
-------------------------------------------------------------------------------
                                 ORCA SCF
-------------------------------------------------------------------------------

------------
SCF SETTINGS
------------
Hamiltonian:
 Density Functional     Method          .... DFT(GTOs)
 Exchange Functional    Exchange        .... WB97M-V
 Correlation Functional Correlation     .... WB97M-V
 Gradients option       PostSCFGGA      .... off
 Hybrid DFT is turned on
   Fraction HF Exchange ScalHFX         ....  0.150000
   Scaling of DF-GGA-X  ScalDFX         ....  0.000000
   Scaling of DF-GGA-C  ScalDFC         ....  1.000000
   Scaling of DF-LDA-C  ScalLDAC        ....  1.000000
   Perturbative correction              ....  0.000000
   Density functional embedding theory  .... OFF
 Long-range corrected/Screened/Range-Separated Hybrid DFT is turned on
   Amount of maximum screened exact exchange              ....  0.850000
   Range separation parameter mu (erf(mu*r12)/r12)        ....  0.300000
   NL short-range parameter             ....  6.000000
   NL long-range parameter              ....  0.010000


General Settings:
 Integral files         IntName         .... 75_O
 Hartree-Fock type      HFTyp           .... UHF
 Total Charge           Charge          ....    0
 Multiplicity           Mult            ....    3
 Number of Electrons    NEL             ....    8
 Basis Dimension        Dim             ....   46
 Nuclear Repulsion      ENuc            ....      0.0000000000 Eh

Convergence Acceleration:
 DIIS                   CNVDIIS         .... on
   Start iteration      DIISMaxIt       ....    12
   Startup error        DIISStart       ....  0.200000
   # of expansion vecs  DIISMaxEq       ....     5
   Bias factor          DIISBfac        ....   1.050
   Max. coefficient     DIISMaxC        ....  10.000
 Newton-Raphson         CNVNR           .... off
 SOSCF                  CNVSOSCF        .... off
 Level Shifting         CNVShift        .... on
   Level shift para.    LevelShift      ....    0.2500
   Turn off err/grad.   ShiftErr        ....    0.0010
 Zerner damping         CNVZerner       .... off
 Static damping         CNVDamp         .... on
   Fraction old density DampFac         ....    0.7000
   Max. Damping (<1)    DampMax         ....    0.9800
   Min. Damping (>=0)   DampMin         ....    0.0000
   Turn off err/grad.   DampErr         ....    0.1000
 Fernandez-Rico         CNVRico         .... off

SCF Procedure:
 Maximum # iterations   MaxIter         ....   125
 SCF integral mode      SCFMode         .... Direct
   Integral package                     .... LIBINT
 Reset frequency        DirectResetFreq ....    20
 Integral Threshold     Thresh          ....  1.000e-10 Eh
 Primitive CutOff       TCut            ....  1.000e-11 Eh

Convergence Tolerance:
 Convergence Check Mode ConvCheckMode   .... Total+1el-Energy
 Convergence forced     ConvForced      .... 0
 Energy Change          TolE            ....  1.000e-06 Eh
 1-El. energy change                    ....  1.000e-03 Eh
 DIIS Error             TolErr          ....  1.000e-06


Diagonalization of the overlap matrix:
Smallest eigenvalue                        ... 2.789e-02
Time for diagonalization                   ...    0.001 sec
Threshold for overlap eigenvalues          ... 1.000e-08
Number of eigenvalues below threshold      ... 0
Time for construction of square roots      ...    0.001 sec
Total time needed                          ...    0.003 sec

-------------------
DFT GRID GENERATION
-------------------

General Integration Accuracy     IntAcc      ...  4.670
Radial Grid Type                 RadialGrid  ... Gauss-Chebyshev
Angular Grid (max. acc.)         AngularGrid ... Lebedev-302
Angular grid pruning method      GridPruning ... 3 (G Style)
Weight generation scheme         WeightScheme... Becke
Basis function cutoff            BFCut       ...    1.0000e-10
Integration weight cutoff        WCut        ...    1.0000e-14
Grids for H and He will be reduced by one unit

# of grid points (after initial pruning)     ...   6212 (   0.0 sec)
# of grid points (after weights+screening)   ...   6212 (   0.0 sec)
Grid point division into batches done        ...    0.0 sec
Reduced shell lists constructed in    0.0 sec

Total number of grid points                  ...     6212
Total number of batches                      ...       98
Average number of points per batch           ...       63
Average number of grid points per atom       ...     6212
Average number of shells per batch           ...     3.33 (23.81%)
Average number of basis functions per batch  ...    10.00 (21.74%)
Average number of large shells per batch     ...     1.67 (50.00%)
Average number of large basis fcns per batch ...     3.33 (33.33%)
Maximum spatial batch extension              ...  15.22, 15.22, 15.22 au
Average spatial batch extension              ...   0.68,  0.68,  0.73 au

Time for grid setup =    0.055 sec

------------------------------
INITIAL GUESS: MODEL POTENTIAL
------------------------------
Loading Hartree-Fock densities                     ... done
Calculating cut-offs                               ... done
Setting up the integral package                    ... done
Initializing the effective Hamiltonian             ... done
Starting the Coulomb interaction                   ... done (   0.0 sec)
Reading the grid                                   ... done
Mapping shells                                     ... done
Starting the XC term evaluation                    ... done (   0.0 sec)
  promolecular density results
     # of electrons  =      8.000000057
     EX              =     -8.014593270
     EC              =     -0.245940534
     EX+EC           =     -8.260533804
Transforming the Hamiltonian                       ... done (   0.0 sec)
Diagonalizing the Hamiltonian                      ... done (   0.0 sec)
Back transforming the eigenvectors                 ... done (   0.0 sec)
Now organizing SCF variables                       ... done
                      ------------------
                      INITIAL GUESS DONE (   0.2 sec)
                      ------------------
--------------
SCF ITERATIONS
--------------
ITER       Energy         Delta-E        Max-DP      RMS-DP      [F,P]     Damp
               ***  Starting incremental Fock matrix formation  ***
  0    -75.1021350558   0.000000000000 0.00458394  0.00023991  0.0662400 0.7000
  1    -75.1039522868  -0.001817231018 0.00413892  0.00020747  0.0454491 0.7000
                               ***Turning on DIIS***
  2    -75.1054114524  -0.001459165609 0.01075223  0.00053799  0.0310435 0.0000
  3    -75.1094249601  -0.004013507707 0.00485106  0.00016451  0.0127135 0.0000
  4    -75.1097145533  -0.000289593145 0.00126528  0.00006993  0.0035084 0.0000
  5    -75.1098192179  -0.000104664617 0.00107159  0.00004166  0.0018296 0.0000
  6    -75.1098633280  -0.000044110063 0.00033252  0.00001468  0.0003404 0.0000
  7    -75.1098877181  -0.000024390126 0.00003757  0.00000178  0.0000398 0.0000
  8    -75.1098909563  -0.000003238189 0.00000419  0.00000020  0.0000049 0.0000
                 **** Energy Check signals convergence ****

               *****************************************************
               *                     SUCCESS                       *
               *           SCF CONVERGED AFTER   9 CYCLES          *
               *****************************************************


Setting up the DFT-NL grid :

General Integration Accuracy     IntAcc      ...  4.340
Radial Grid Type                 RadialGrid  ... Gauss-Chebyshev
Angular Grid (max. acc.)         AngularGrid ... Lebedev-110
Angular grid pruning method      GridPruning ... 3 (G Style)
Weight generation scheme         WeightScheme... Becke
Basis function cutoff            BFCut       ...    1.0000e-10
Integration weight cutoff        WCut        ...    1.0000e-14
Grids for H and He will be reduced by one unit

# of grid points (after initial pruning)     ...   1716 (   0.0 sec)
# of grid points (after weights+screening)   ...   1716 (   0.0 sec)
Grid point division into batches done        ...    0.0 sec
Reduced shell lists constructed in    0.0 sec

Total number of grid points                  ...     1716
Total number of batches                      ...       27
Average number of points per batch           ...       63
Average number of grid points per atom       ...     1716
Average number of shells per batch           ...     7.33 (52.38%)
Average number of basis functions per batch  ...    24.67 (53.62%)
Average number of large shells per batch     ...     6.00 (81.82%)
Average number of large basis fcns per batch ...    19.33 (78.38%)
Maximum spatial batch extension              ...  13.89, 25.65, 25.65 au
Average spatial batch extension              ...   1.03,  1.90,  1.90 au

Final grid set up in    0.0 sec

-------------------------------------------------------------------------------
                         DFT-NL dispersion correction                          
-------------------------------------------------------------------------------

SC Energy -75.109891200 
NL    Energy 0.035104398 
SC+NL Energy -75.074786802 
NL done in    0.0 sec
-------------------------------------------------------------------------------

----------------
TOTAL SCF ENERGY
----------------

Total Energy       :          -75.07478680 Eh           -2042.88881 eV

Components:
Nuclear Repulsion  :            0.00000000 Eh               0.00000 eV
Electronic Energy  :          -75.07478680 Eh           -2042.88881 eV
One Electron Energy:         -103.15632484 Eh           -2807.02631 eV
Two Electron Energy:           28.08153804 Eh             764.13750 eV

Virial components:
Potential Energy   :         -149.87570270 Eh           -4078.32521 eV
Kinetic Energy     :           74.80091590 Eh            2035.43640 eV
Virial Ratio       :            2.00366133


DFT components:
N(Alpha)           :        4.999999744395 electrons
N(Beta)            :        2.999999740682 electrons
N(Total)           :        7.999999485077 electrons
E(X)               :       -5.919649555849 Eh       
E(C)               :       -0.243547256940 Eh       
NL Energy, E(C,NL) :        0.035104397766 Eh       
E(XC)              :       -6.128092415024 Eh       
DFET-embed. en.    :        0.000000000000 Eh       

---------------
SCF CONVERGENCE
---------------

  Last Energy change         ...   -2.4330e-07  Tolerance :   1.0000e-06
  Last MAX-Density change    ...    8.6343e-07  Tolerance :   1.0000e-05
  Last RMS-Density change    ...    2.7998e-08  Tolerance :   1.0000e-06
  Last DIIS Error            ...    5.5932e-07  Tolerance :   1.0000e-06

             **** THE GBW FILE WAS UPDATED (75_O.gbw) ****
             **** DENSITY FILE WAS UPDATED (75_O.scfp) ****
             **** ENERGY FILE WAS UPDATED (75_O.en.tmp) ****
----------------------
UHF SPIN CONTAMINATION
----------------------

Warning: in a DFT calculation there is little theoretical justification to 
         calculate <S**2> as in Hartree-Fock theory. We will do it anyways
         but you should keep in mind that the values have only limited relevance

Expectation value of <S**2>     :     2.004826
Ideal value S*(S+1) for S=1.0   :     2.000000
Deviation                       :     0.004826

             **** THE GBW FILE WAS UPDATED (75_O.gbw) ****
             **** DENSITY FILE WAS UPDATED (75_O.scfp) ****
----------------
ORBITAL ENERGIES
----------------
                 SPIN UP ORBITALS
  NO   OCC          E(Eh)            E(eV) 
   0   1.0000     -19.487586      -530.2842 
   1   1.0000      -1.147611       -31.2281 
   2   1.0000      -0.570019       -15.5110 
   3   1.0000      -0.570019       -15.5110 
   4   1.0000      -0.508427       -13.8350 
   5   0.0000       0.119074         3.2402 
   6   0.0000       0.121832         3.3152 
   7   0.0000       0.121832         3.3152 
   8   0.0000       0.127700         3.4749 
   9   0.0000       0.572640        15.5823 
  10   0.0000       0.572640        15.5823 
  11   0.0000       0.583177        15.8691 
  12   0.0000       0.583177        15.8691 
  13   0.0000       0.585722        15.9383 
  14   0.0000       0.780862        21.2483 
  15   0.0000       0.780862        21.2483 
  16   0.0000       0.805330        21.9141 
  17   0.0000       1.121961        30.5301 
  18   0.0000       1.863494        50.7082 
  19   0.0000       1.863494        50.7082 
  20   0.0000       1.876572        51.0641 
  21   0.0000       1.876572        51.0641 
  22   0.0000       1.879716        51.1497 
  23   0.0000       1.879716        51.1497 
  24   0.0000       1.890916        51.4544 
  25   0.0000       1.890916        51.4544 
  26   0.0000       1.895122        51.5689 
  27   0.0000       1.916953        52.1629 
  28   0.0000       1.916953        52.1629 
  29   0.0000       1.930265        52.5252 
  30   0.0000       3.699212       100.6607 
  31   0.0000       3.699212       100.6607 
  32   0.0000       3.769048       102.5610 
  33   0.0000       5.977831       162.6650 
  34   0.0000       5.977831       162.6650 
  35   0.0000       6.020738       163.8326 
  36   0.0000       6.020738       163.8326 
  37   0.0000       6.045208       164.4985 
  38   0.0000       6.045208       164.4985 
  39   0.0000       6.053608       164.7270 
  40   0.0000       6.411732       174.4721 
  41   0.0000       6.411732       174.4721 
  42   0.0000       6.470807       176.0796 
  43   0.0000       6.470807       176.0796 
  44   0.0000       6.492219       176.6623 
  45   0.0000       7.777562       211.6382 

                 SPIN DOWN ORBITALS
  NO   OCC          E(Eh)            E(eV) 
   0   1.0000     -19.437602      -528.9240 
   1   1.0000      -0.991171       -26.9711 
   2   1.0000      -0.445469       -12.1218 
   3   0.0000      -0.089369        -2.4319 
   4   0.0000      -0.089366        -2.4318 
   5   0.0000       0.088854         2.4179 
   6   0.0000       0.105116         2.8603 
   7   0.0000       0.105155         2.8614 
   8   0.0000       0.135332         3.6826 
   9   0.0000       0.536065        14.5871 
  10   0.0000       0.536065        14.5871 
  11   0.0000       0.568725        15.4758 
  12   0.0000       0.579076        15.7575 
  13   0.0000       0.579076        15.7575 
  14   0.0000       0.824075        22.4242 
  15   0.0000       0.824087        22.4245 
  16   0.0000       0.825643        22.4669 
  17   0.0000       1.174439        31.9581 
  18   0.0000       1.872122        50.9430 
  19   0.0000       1.872122        50.9430 
  20   0.0000       1.893242        51.5177 
  21   0.0000       1.893242        51.5177 
  22   0.0000       1.894667        51.5565 
  23   0.0000       1.894667        51.5565 
  24   0.0000       1.900775        51.7227 
  25   0.0000       1.980874        53.9023 
  26   0.0000       1.980874        53.9023 
  27   0.0000       1.982548        53.9479 
  28   0.0000       1.982548        53.9479 
  29   0.0000       1.987513        54.0830 
  30   0.0000       3.857027       104.9550 
  31   0.0000       3.864038       105.1458 
  32   0.0000       3.864041       105.1459 
  33   0.0000       6.142170       167.1369 
  34   0.0000       6.142170       167.1369 
  35   0.0000       6.147121       167.2717 
  36   0.0000       6.149048       167.3241 
  37   0.0000       6.149050       167.3241 
  38   0.0000       6.153979       167.4583 
  39   0.0000       6.153979       167.4583 
  40   0.0000       6.627533       180.3443 
  41   0.0000       6.628401       180.3680 
  42   0.0000       6.628402       180.3680 
  43   0.0000       6.646324       180.8557 
  44   0.0000       6.646325       180.8557 
  45   0.0000       7.903635       215.0689 

                    ********************************
                    * MULLIKEN POPULATION ANALYSIS *
                    ********************************

--------------------------------------------
MULLIKEN ATOMIC CHARGES AND SPIN POPULATIONS
--------------------------------------------
   0 O :   -0.000000    2.000000
Sum of atomic charges         :   -0.0000000
Sum of atomic spin populations:    2.0000000

-----------------------------------------------------
MULLIKEN REDUCED ORBITAL CHARGES AND SPIN POPULATIONS
-----------------------------------------------------
CHARGE
  0 O s       :     3.999629  s :     3.999629
      pz      :     1.002874  p :     3.999776
      px      :     1.996665
      py      :     1.000236
      dz2     :     0.000091  d :     0.000371
      dxz     :     0.000003
      dyz     :     0.000000
      dx2y2   :     0.000276
      dxy     :     0.000000
      f0      :     0.000022  f :     0.000224
      f+1     :     0.000040
      f-1     :     0.000004
      f+2     :     0.000037
      f-2     :     0.000000
      f+3     :     0.000065
      f-3     :     0.000055

SPIN
  0 O s       :    -0.000170  s :    -0.000170
      pz      :     0.997007  p :     1.999790
      px      :     0.003138
      py      :     0.999645
      dz2     :     0.000042  d :     0.000170
      dxz     :     0.000001
      dyz     :     0.000000
      dx2y2   :     0.000127
      dxy     :     0.000000
      f0      :     0.000022  f :     0.000210
      f+1     :     0.000035
      f-1     :     0.000004
      f+2     :     0.000037
      f-2     :     0.000000
      f+3     :     0.000057
      f-3     :     0.000055


                     *******************************
                     * LOEWDIN POPULATION ANALYSIS *
                     *******************************

-------------------------------------------
LOEWDIN ATOMIC CHARGES AND SPIN POPULATIONS
-------------------------------------------
   0 O :   -0.000000    2.000000

----------------------------------------------------
LOEWDIN REDUCED ORBITAL CHARGES AND SPIN POPULATIONS
----------------------------------------------------
CHARGE
  0 O s       :     3.999629  s :     3.999629
      pz      :     1.002874  p :     3.999776
      px      :     1.996665
      py      :     1.000236
      dz2     :     0.000091  d :     0.000371
      dxz     :     0.000003
      dyz     :     0.000000
      dx2y2   :     0.000276
      dxy     :     0.000000
      f0      :     0.000022  f :     0.000224
      f+1     :     0.000040
      f-1     :     0.000004
      f+2     :     0.000037
      f-2     :     0.000000
      f+3     :     0.000065
      f-3     :     0.000055

SPIN
  0 O s       :    -0.000170  s :    -0.000170
      pz      :     0.997007  p :     1.999790
      px      :     0.003138
      py      :     0.999645
      dz2     :     0.000042  d :     0.000170
      dxz     :     0.000001
      dyz     :     0.000000
      dx2y2   :     0.000127
      dxy     :     0.000000
      f0      :     0.000022  f :     0.000210
      f+1     :     0.000035
      f-1     :     0.000004
      f+2     :     0.000037
      f-2     :     0.000000
      f+3     :     0.000057
      f-3     :     0.000055


                      *****************************
                      * MAYER POPULATION ANALYSIS *
                      *****************************

  NA   - Mulliken gross atomic population
  ZA   - Total nuclear charge
  QA   - Mulliken gross atomic charge
  VA   - Mayer's total valence
  BVA  - Mayer's bonded valence
  FA   - Mayer's free valence

  ATOM       NA         ZA         QA         VA         BVA        FA
  0 O      8.0000     8.0000    -0.0000     2.0097     0.0000     2.0097

  Mayer bond orders larger than 0.100000


-------
TIMINGS
-------

Total SCF time: 0 days 0 hours 0 min 1 sec 

Total time                  ....       1.464 sec
Sum of individual times     ....       1.276 sec  ( 87.1%)

Fock matrix formation       ....       1.096 sec  ( 74.8%)
  XC integration            ....       0.070 sec  (  6.3% of F)
    Basis function eval.    ....       0.004 sec  (  5.9% of XC)
    Density eval.           ....       0.007 sec  ( 10.4% of XC)
    XC-Functional eval.     ....       0.005 sec  (  7.5% of XC)
    XC-Potential eval.      ....       0.011 sec  ( 15.2% of XC)
Diagonalization             ....       0.007 sec  (  0.5%)
Density matrix formation    ....       0.002 sec  (  0.1%)
Population analysis         ....       0.003 sec  (  0.2%)
Initial guess               ....       0.104 sec  (  7.1%)
Orbital Transformation      ....       0.000 sec  (  0.0%)
Orbital Orthonormalization  ....       0.000 sec  (  0.0%)
DIIS solution               ....       0.005 sec  (  0.4%)
Grid generation             ....       0.060 sec  (  4.1%)

-------------------------   --------------------
FINAL SINGLE POINT ENERGY       -75.074786801806
-------------------------   --------------------


                            ***************************************
                            *     ORCA property calculations      *
                            ***************************************

                                    ---------------------
                                    Active property flags
                                    ---------------------
   (+) Dipole Moment


------------------------------------------------------------------------------
                       ORCA ELECTRIC PROPERTIES CALCULATION
------------------------------------------------------------------------------

Dipole Moment Calculation                       ... on
Quadrupole Moment Calculation                   ... off
Polarizability Calculation                      ... off
GBWName                                         ... 75_O.gbw
Electron density file                           ... 75_O.scfp
The origin for moment calculation is the CENTER OF MASS  = ( 0.000000,  0.000000  0.000000)

-------------
DIPOLE MOMENT
-------------
                                X             Y             Z
Electronic contribution:     -0.00000       0.00000      -0.00000
Nuclear contribution   :      0.00000       0.00000       0.00000
                        -----------------------------------------
Total Dipole Moment    :     -0.00000       0.00000      -0.00000
                        -----------------------------------------
Magnitude (a.u.)       :      0.00000
Magnitude (Debye)      :      0.00000



--------------------
Rotational spectrum 
--------------------
 
Rotational constants in cm-1:     0.000000     0.000000     0.000000 
Rotational constants in MHz :     0.000000     0.000000     0.000000 

 Dipole components along the rotational axes: 
x,y,z [a.u.] :    -0.000000     0.000000    -0.000000 
x,y,z [Debye]:    -0.000000     0.000000    -0.000000 

 

Timings for individual modules:

Sum of individual times         ...        2.514 sec (=   0.042 min)
GTO integral calculation        ...        0.658 sec (=   0.011 min)  26.2 %
SCF iterations                  ...        1.856 sec (=   0.031 min)  73.8 %
                             ****ORCA TERMINATED NORMALLY****
TOTAL RUN TIME: 0 days 0 hours 0 minutes 2 seconds 943 msec
