
                                 *****************
                                 * O   R   C   A *
                                 *****************

           --- An Ab Initio, DFT and Semiempirical electronic structure package ---

                  #######################################################
                  #                        -***-                        #
                  #          Department of theory and spectroscopy      #
                  #               Directorship: Frank Neese             #
                  #        Max Planck Institute fuer Kohlenforschung    #
                  #                Kaiser Wilhelm Platz 1               #
                  #                 D-45470 Muelheim/Ruhr               #
                  #                      Germany                        #
                  #                                                     #
                  #                  All rights reserved                #
                  #                        -***-                        #
                  #######################################################


                         Program Version 4.2.0 -  RELEASE  -


 With contributions from (in alphabetic order):
   Daniel Aravena         : Magnetic Suceptibility
   Michael Atanasov       : Ab Initio Ligand Field Theory (pilot matlab implementation)
   Alexander A. Auer      : GIAO ZORA, VPT2
   Ute Becker             : Parallelization
   Giovanni Bistoni       : ED, misc. LED, open-shell LED, HFLED
   Martin Brehm           : Molecular dynamics
   Dmytro Bykov           : SCF Hessian
   Vijay G. Chilkuri      : MRCI spin determinant printing, contributions to CSF-ICE
   Dipayan Datta          : RHF DLPNO-CCSD density
   Achintya Kumar Dutta   : EOM-CC, STEOM-CC
   Dmitry Ganyushin       : Spin-Orbit,Spin-Spin,Magnetic field MRCI
   Miquel Garcia          : C-PCM Hessian, Gaussian charge scheme
   Yang Guo               : DLPNO-NEVPT2, CIM, IAO-localization
   Andreas Hansen         : Spin unrestricted coupled pair/coupled cluster methods
   Benjamin Helmich-Paris : CASSCF linear response (MC-RPA)
   Lee Huntington         : MR-EOM, pCC
   Robert Izsak           : Overlap fitted RIJCOSX, COSX-SCS-MP3, EOM
   Christian Kollmar      : KDIIS, OOCD, Brueckner-CCSD(T), CCSD density
   Simone Kossmann        : Meta GGA functionals, TD-DFT gradient, OOMP2, MP2 Hessian
   Martin Krupicka        : AUTO-CI
   Lucas Lang             : DCDCAS
   Dagmar Lenk            : GEPOL surface, SMD
   Dimitrios Liakos       : Extrapolation schemes; Compound Job, initial MDCI parallelization
   Dimitrios Manganas     : Further ROCIS development; embedding schemes
   Dimitrios Pantazis     : SARC Basis sets
   Taras Petrenko         : DFT Hessian,TD-DFT gradient, ASA, ECA, R-Raman, ABS, FL, XAS/XES, NRVS
   Peter Pinski           : DLPNO-MP2, DLPNO-MP2 Gradient
   Christoph Reimann      : Effective Core Potentials
   Marius Retegan         : Local ZFS, SOC
   Christoph Riplinger    : Optimizer, TS searches, QM/MM, DLPNO-CCSD(T), (RO)-DLPNO pert. Triples
   Tobias Risthaus        : Range-separated hybrids, TD-DFT gradient, RPA, STAB
   Michael Roemelt        : Original ROCIS implementation
   Masaaki Saitow         : Open-shell DLPNO-CCSD energy and density
   Barbara Sandhoefer     : DKH picture change effects
   Avijit Sen             : IP-ROCIS
   Kantharuban Sivalingam : CASSCF convergence, NEVPT2, FIC-MRCI
   Bernardo de Souza      : ESD, SOC TD-DFT
   Georgi Stoychev        : AutoAux, RI-MP2 NMR
   Willem Van den Heuvel  : Paramagnetic NMR
   Boris Wezisla          : Elementary symmetry handling
   Frank Wennmohs         : Technical directorship


 We gratefully acknowledge several colleagues who have allowed us to
 interface, adapt or use parts of their codes:
   Stefan Grimme, W. Hujo, H. Kruse,             : VdW corrections, initial TS optimization,
                  C. Bannwarth                     DFT functionals, gCP, sTDA/sTD-DF
   Ed Valeev, F. Pavosevic, A. Kumar             : LibInt (2-el integral package), F12 methods
   Garnet Chan, S. Sharma, J. Yang, R. Olivares  : DMRG
   Ulf Ekstrom                                   : XCFun DFT Library
   Mihaly Kallay                                 : mrcc  (arbitrary order and MRCC methods)
   Andreas Klamt, Michael Diedenhofen            : otool_cosmo (COSMO solvation model)
   Jiri Pittner, Ondrej Demel                    : Mk-CCSD
   Frank Weinhold                                : gennbo (NPA and NBO analysis)
   Christopher J. Cramer and Donald G. Truhlar   : smd solvation model
   Lars Goerigk                                  : TD-DFT with DH, B97 family of functionals
   V. Asgeirsson, H. Jonsson                     : NEB implementation
   FAccTs GmbH                                   : IRC, NEB, NEB-TS, Multilevel, MM, QM/MM, CI optimization
   S Lehtola, MJT Oliveira, MAL Marques          : LibXC Library


 Your calculation uses the libint2 library for the computation of 2-el integrals
 For citations please refer to: http://libint.valeyev.net

 Your ORCA version has been built with support for libXC version: 4.2.3
 For citations please refer to: https://tddft.org/programs/libxc/

 This ORCA versions uses:
   CBLAS   interface :  Fast vector & matrix operations
   LAPACKE interface :  Fast linear algebra routines
   SCALAPACK package :  Parallel linear algebra routines


Your calculation utilizes the atom-pairwise dispersion correction
with the Becke-Johnson damping scheme (D3BJ)
Cite in your paper:
S.Grimme, S.Ehrlich, L.Goerigk, J Comput Chem, (2011), 32, 1456–1465 
S.Grimme, J.Antony, S.Ehrlich and H.Krieg, J.Chem.Phys., 132, (2010), 154104 
   

----- Orbital basis set information -----
Your calculation utilizes the basis: aug-cc-pVTZ 
    H, B-Ne : Obtained from the ccRepo (grant-hill.group.shef.ac.uk/ccrepo) Feb. 2017
              R. A. Kendall, T. H. Dunning, Jr., R. J. Harrison, J. Chem. Phys. 96, 6796 (1992)
         He : Obtained from the ccRepo (grant-hill.group.shef.ac.uk/ccrepo) Feb. 2017
              D. E. Woon, T. H. Dunning, Jr., J. Chem. Phys. 100, 2975 (1994)
  Li-Be, Na : Obtained from the ccRepo (grant-hill.group.shef.ac.uk/ccrepo) Feb. 2017
              B. P. Prascher, D. E. Woon, K. A. Peterson, T. H. Dunning, Jr., A. K. Wilson, Theor. Chem. Acc. 128, 69 (2011)
         Mg : Obtained from the Peterson Research Group Website (tyr0.chem.wsu.edu/~kipeters) Feb. 2017
              B. P. Prascher, D. E. Woon, K. A. Peterson, T. H. Dunning, Jr., A. K. Wilson, Theor. Chem. Acc. 128, 69 (2011)
      Al-Ar : Obtained from the ccRepo (grant-hill.group.shef.ac.uk/ccrepo) Feb. 2017
              D. E. Woon, T. H. Dunning, Jr., J. Chem. Phys. 98, 1358 (1993)
      Sc-Zn : Obtained from the ccRepo (grant-hill.group.shef.ac.uk/ccrepo) Feb. 2017
              N. B. Balabanov, K. A. Peterson, J. Chem. Phys. 123, 064107 (2005)
              N. B. Balabanov, K. A. Peterson, J. Chem. Phys. 125, 074110 (2006)
      Ga-Kr : Obtained from the ccRepo (grant-hill.group.shef.ac.uk/ccrepo) Feb. 2017
              A. K. Wilson, D. E. Woon, K. A. Peterson, T. H. Dunning, Jr., J. Chem. Phys. 110, 7667 (1999)
     Ag, Au : Obtained from the Peterson Research Group Website (tyr0.chem.wsu.edu/~kipeters) Feb. 2017
              K. A. Peterson, C. Puzzarini, Theor. Chem. Acc. 114, 283 (2005)

----- AuxJ basis set information -----
Your calculation utilizes the auxiliary basis: def2/J
   F. Weigend, Phys. Chem. Chem. Phys. 8, 1057 (2006).

================================================================================
                                        WARNINGS
                       Please study these warnings very carefully!
================================================================================


WARNING: your system is open-shell and RHF/RKS was chosen
  ===> : WILL SWITCH to UHF/UKS


WARNING: The SCAN functional is very grid-sensitive!
         Use at least GRID5 and a higher intacc

INFO   : the flag for use of LIBINT has been found!

================================================================================
                                       INPUT FILE
================================================================================
NAME = 05_ScO.in
|  1> #
|  2> # 05_ScO scanfunc/aug-cc-pvtz
|  3> #
|  4> ! scanfunc d3bj aug-cc-pvtz def2/j grid4 nofinalgrid
|  5> 
|  6> *xyz 0 2
|  7>   Sc  0.00000000000000      0.00000000000000      0.16492994527036
|  8>   O   0.00000000000000      0.00000000000000      1.83507005472964
|  9> *
| 10> 
| 11> %pal
| 12> nprocs 24
| 13> end
| 14> 
| 15> 
| 16>                          ****END OF INPUT****
================================================================================

                       ****************************
                       * Single Point Calculation *
                       ****************************

---------------------------------
CARTESIAN COORDINATES (ANGSTROEM)
---------------------------------
  Sc     0.000000    0.000000    0.164930
  O      0.000000    0.000000    1.835070

----------------------------
CARTESIAN COORDINATES (A.U.)
----------------------------
  NO LB      ZA    FRAG     MASS         X           Y           Z
   0 Sc   21.0000    0    44.960    0.000000    0.000000    0.311672
   1 O     8.0000    0    15.999    0.000000    0.000000    3.467780

--------------------------------
INTERNAL COORDINATES (ANGSTROEM)
--------------------------------
 Sc     0   0   0     0.000000000000     0.00000000     0.00000000
 O      1   0   0     1.670140109459     0.00000000     0.00000000

---------------------------
INTERNAL COORDINATES (A.U.)
---------------------------
 Sc     0   0   0     0.000000000000     0.00000000     0.00000000
 O      1   0   0     3.156107412155     0.00000000     0.00000000

---------------------
BASIS SET INFORMATION
---------------------
There are 2 groups of distinct atoms

 Group   1 Type Sc  : 116s77p23d3f2g contracted to 8s7p5d3f2g pattern {19191919191911/151515151511/77711/111/11}
 Group   2 Type O   : 19s6p3d2f contracted to 5s4p3d2f pattern {88111/3111/111/11}

Atom   0Sc   basis set group =>   1
Atom   1O    basis set group =>   2
---------------------------------
AUXILIARY/J BASIS SET INFORMATION
---------------------------------
There are 2 groups of distinct atoms

 Group   1 Type Sc  : 19s5p5d3f3g contracted to 8s5p5d2f3g pattern {121111111/11111/11111/21/111}
 Group   2 Type O   : 12s5p4d2f1g contracted to 6s4p3d1f1g pattern {711111/2111/211/2/1}

Atom   0Sc   basis set group =>   1
Atom   1O    basis set group =>   2


           ************************************************************
           *        Program running with 24 parallel MPI-processes    *
           *              working on a common directory               *
           ************************************************************
------------------------------------------------------------------------------
                           ORCA GTO INTEGRAL CALCULATION
                           -- RI-GTO INTEGRALS CHOSEN --
------------------------------------------------------------------------------

                         BASIS SET STATISTICS AND STARTUP INFO

Gaussian basis set:
 # of primitive gaussian shells          ...  251
 # of primitive gaussian functions       ...  567
 # of contracted shells                  ...   39
 # of contracted basis functions         ...  139
 Highest angular momentum                ...    4
 Maximum contraction depth               ...   19
Auxiliary gaussian basis set:
 # of primitive gaussian shells          ...   59
 # of primitive gaussian functions       ...  177
 # of contracted shells                  ...   38
 # of contracted aux-basis functions     ...  138
 Highest angular momentum                ...    4
 Maximum contraction depth               ...   12
Ratio of auxiliary to basis functions    ...  0.99
Integral package used                  ... LIBINT
 One Electron integrals                  ... done
 Ordering auxiliary basis shells         ... done
 Integral threshhold             Thresh  ...  1.000e-10
 Primitive cut-off               TCut    ...  1.000e-11
 Pre-screening matrix                    ... done
 Shell pair data                         ... 
 Ordering of the shell pairs             ... done (   0.000 sec) 780 of 780 pairs
 Determination of significant pairs      ... done (   0.000 sec)
 Creation of shell pair data             ... done (   0.001 sec)
 Storage of shell pair data              ... done (   0.020 sec)
 Shell pair data done in (   0.021 sec)
 Computing two index integrals           ... done
 Cholesky decomposition of the V-matrix  ... done


Timings:
 Total evaluation time                   ...   2.258 sec (  0.038 min)
 One electron matrix time                ...   0.046 sec (  0.001 min) =  2.0%
 Schwartz matrix evaluation time         ...   2.157 sec (  0.036 min) = 95.5%
 Two index repulsion integral time       ...   0.001 sec (  0.000 min) =  0.0%
 Cholesky decomposition of V             ...   0.005 sec (  0.000 min) =  0.2%
 Three index repulsion integral time     ...   0.000 sec (  0.000 min) =  0.0%



           ************************************************************
           *        Program running with 24 parallel MPI-processes    *
           *              working on a common directory               *
           ************************************************************
-------------------------------------------------------------------------------
                                 ORCA SCF
-------------------------------------------------------------------------------

------------
SCF SETTINGS
------------
Hamiltonian:
 Density Functional     Method          .... DFT(GTOs)
 Exchange Functional    Exchange        .... SCAN
 Correlation Functional Correlation     .... SCAN
 Gradients option       PostSCFGGA      .... off
   Density functional embedding theory  .... OFF
   NL short-range parameter             ....  6.400000
 RI-approximation to the Coulomb term is turned on
   Number of auxiliary basis functions  .... 138


General Settings:
 Integral files         IntName         .... 05_ScO
 Hartree-Fock type      HFTyp           .... UHF
 Total Charge           Charge          ....    0
 Multiplicity           Mult            ....    2
 Number of Electrons    NEL             ....   29
 Basis Dimension        Dim             ....  139
 Nuclear Repulsion      ENuc            ....     53.2301275150 Eh

Convergence Acceleration:
 DIIS                   CNVDIIS         .... on
   Start iteration      DIISMaxIt       ....    12
   Startup error        DIISStart       ....  0.200000
   # of expansion vecs  DIISMaxEq       ....     5
   Bias factor          DIISBfac        ....   1.050
   Max. coefficient     DIISMaxC        ....  10.000
 Newton-Raphson         CNVNR           .... off
 SOSCF                  CNVSOSCF        .... off
 Level Shifting         CNVShift        .... on
   Level shift para.    LevelShift      ....    0.2500
   Turn off err/grad.   ShiftErr        ....    0.0010
 Zerner damping         CNVZerner       .... off
 Static damping         CNVDamp         .... on
   Fraction old density DampFac         ....    0.7000
   Max. Damping (<1)    DampMax         ....    0.9800
   Min. Damping (>=0)   DampMin         ....    0.0000
   Turn off err/grad.   DampErr         ....    0.1000
 Fernandez-Rico         CNVRico         .... off

SCF Procedure:
 Maximum # iterations   MaxIter         ....   125
 SCF integral mode      SCFMode         .... Direct
   Integral package                     .... LIBINT
 Reset frequency        DirectResetFreq ....    20
 Integral Threshold     Thresh          ....  1.000e-10 Eh
 Primitive CutOff       TCut            ....  1.000e-11 Eh

Convergence Tolerance:
 Convergence Check Mode ConvCheckMode   .... Total+1el-Energy
 Convergence forced     ConvForced      .... 0
 Energy Change          TolE            ....  1.000e-06 Eh
 1-El. energy change                    ....  1.000e-03 Eh
 DIIS Error             TolErr          ....  1.000e-06


Diagonalization of the overlap matrix:
Smallest eigenvalue                        ... 5.912e-05
Time for diagonalization                   ...    0.005 sec
Threshold for overlap eigenvalues          ... 1.000e-08
Number of eigenvalues below threshold      ... 0
Time for construction of square roots      ...    0.002 sec
Total time needed                          ...    0.008 sec

-------------------
DFT GRID GENERATION
-------------------

General Integration Accuracy     IntAcc      ...  4.670
Radial Grid Type                 RadialGrid  ... Gauss-Chebyshev
Angular Grid (max. acc.)         AngularGrid ... Lebedev-302
Angular grid pruning method      GridPruning ... 3 (G Style)
Weight generation scheme         WeightScheme... Becke
Basis function cutoff            BFCut       ...    1.0000e-10
Integration weight cutoff        WCut        ...    1.0000e-14
Grids for H and He will be reduced by one unit

# of grid points (after initial pruning)     ...  15876 (   0.0 sec)
# of grid points (after weights+screening)   ...  15826 (   0.0 sec)
nearest neighbour list constructed           ...    0.0 sec
Grid point re-assignment to atoms done       ...    0.0 sec
Grid point division into batches done        ...    0.1 sec
Reduced shell lists constructed in    0.1 sec

Total number of grid points                  ...    15826
Total number of batches                      ...      248
Average number of points per batch           ...       63
Average number of grid points per atom       ...     7913
Average number of shells per batch           ...    20.67 (52.99%)
Average number of basis functions per batch  ...    66.50 (47.84%)
Average number of large shells per batch     ...    13.58 (65.73%)
Average number of large basis fcns per batch ...    45.08 (67.79%)
Maximum spatial batch extension              ...  30.95, 34.02, 18.21 au
Average spatial batch extension              ...   0.97,  1.03,  0.71 au

Time for grid setup =    0.316 sec

------------------------------
INITIAL GUESS: MODEL POTENTIAL
------------------------------
Loading Hartree-Fock densities                     ... done
Calculating cut-offs                               ... done
Setting up the integral package                    ... done
Initializing the effective Hamiltonian             ... done
Starting the Coulomb interaction                   ... done (   0.0 sec)
Reading the grid                                   ... done
Mapping shells                                     ... done
Starting the XC term evaluation                    ... done (   0.0 sec)
  promolecular density results
     # of electrons  =     29.000005899
     EX              =    -51.592538811
     EC              =     -0.490150971
     EX+EC           =    -52.082689781
Transforming the Hamiltonian                       ... done (   0.0 sec)
Diagonalizing the Hamiltonian                      ... done (   0.0 sec)
Back transforming the eigenvectors                 ... done (   0.0 sec)
Now organizing SCF variables                       ... done
                      ------------------
                      INITIAL GUESS DONE (   0.4 sec)
                      ------------------
--------------
SCF ITERATIONS
--------------
ITER       Energy         Delta-E        Max-DP      RMS-DP      [F,P]     Damp
               ***  Starting incremental Fock matrix formation  ***
  0   -835.3586830637   0.000000000000 0.57979793  0.01254959  0.7662563 0.7000
  1   -835.6028276553  -0.244144591589 0.42281184  0.00886201  0.1401338 0.7000
                               ***Turning on DIIS***
  2   -835.6320031296  -0.029175474338 0.32810498  0.00580313  0.1607178 0.7000
  3   -835.7351258307  -0.103122701111 0.73719050  0.01194198  0.0787082 0.0000
  4   -835.8559416237  -0.120815792973 0.01000099  0.00025952  0.1862988 0.7000
  5   -835.8668281459  -0.010886522266 0.01162095  0.00028512  0.1721633 0.7000
  6   -835.8786379326  -0.011809786643 0.01221190  0.00027674  0.1552725 0.7000
  7   -835.8897791437  -0.011141211142 0.01256590  0.00025802  0.1372145 0.7000
  8   -835.9008645105  -0.011085366790 0.02428432  0.00040398  0.1149389 0.7000
  9   -835.9145711217  -0.013706611207 0.04530496  0.00095885  0.0746685 0.0000
 10   -835.9289495105  -0.014378388809 0.01783809  0.00033207  0.0263598 0.0000
 11   -835.9297991137  -0.000849603134 0.00678716  0.00012595  0.0127400 0.0000
 12   -835.9300419807  -0.000242867044 0.00539526  0.00008181  0.0054362 0.0000
 13   -835.9301025106  -0.000060529840 0.00335310  0.00004262  0.0022354 0.0000
 14   -835.9301232892  -0.000020778611 0.91313080  0.00563701  0.0008728 0.0000
 15   -835.9652131526  -0.035089863427 0.00111964  0.00001894  0.0940427 0.0000
 16   -835.9650201529   0.000192999643 0.00025269  0.00000231  0.0945546 0.0000
 17   -835.9649702784   0.000049874516 0.00027189  0.00000350  0.0946338 0.0000
 18   -835.9649072227   0.000063055736 0.00095859  0.00001517  0.0947336 0.0000
 19   -835.9648069700   0.000100252665 0.36376300  0.00752527  0.0947925 0.0000
               *** Restarting incremental Fock matrix formation ***
                                   *** Resetting DIIS ***
 20   -835.9575331829   0.007273787106 0.13184562  0.00285993  0.1445879 0.7000
 21   -835.9748296504  -0.017296467480 0.16492369  0.00382151  0.0277164 0.0000
 22   -835.9691716942   0.005657956225 0.01113640  0.00024659  0.1051740 0.7000
 23   -835.9750276800  -0.005855985852 0.04883948  0.00095386  0.0840596 0.0000
 24   -835.9867346787  -0.011706998665 0.02855515  0.00044653  0.0057482 0.0000
 25   -835.9869013236  -0.000166644924 0.01168311  0.00015216  0.0012747 0.0000
 26   -835.9869209322  -0.000019608627 0.00545080  0.00005958  0.0007016 0.0000
 27   -835.9869305217  -0.000009589464 0.00244147  0.00003822  0.0004052 0.0000
 28   -835.9869311836  -0.000000661919 0.00124339  0.00001679  0.0002234 0.0000
                 **** Energy Check signals convergence ****

               *****************************************************
               *                     SUCCESS                       *
               *           SCF CONVERGED AFTER  29 CYCLES          *
               *****************************************************


----------------
TOTAL SCF ENERGY
----------------

Total Energy       :         -835.98693103 Eh          -22748.36090 eV

Components:
Nuclear Repulsion  :           53.23012751 Eh            1448.46541 eV
Electronic Energy  :         -889.21705855 Eh          -24196.82631 eV
One Electron Energy:        -1251.83504075 Eh          -34064.16325 eV
Two Electron Energy:          362.61798220 Eh            9867.33694 eV

Virial components:
Potential Energy   :        -1670.46433795 Eh          -45455.64556 eV
Kinetic Energy     :          834.47740692 Eh           22707.28466 eV
Virial Ratio       :            2.00180895


DFT components:
N(Alpha)           :       14.999995358757 electrons
N(Beta)            :       13.999995777525 electrons
N(Total)           :       28.999991136282 electrons
E(X)               :      -46.511862535531 Eh       
E(C)               :       -1.109574004503 Eh       
E(XC)              :      -47.621436540034 Eh       
DFET-embed. en.    :        0.000000000000 Eh       

---------------
SCF CONVERGENCE
---------------

  Last Energy change         ...    1.4944e-07  Tolerance :   1.0000e-06
  Last MAX-Density change    ...    1.5380e-04  Tolerance :   1.0000e-05
  Last RMS-Density change    ...    1.9990e-06  Tolerance :   1.0000e-06
  Last DIIS Error            ...    2.2552e-04  Tolerance :   1.0000e-06

             **** THE GBW FILE WAS UPDATED (05_ScO.gbw) ****
             **** DENSITY FILE WAS UPDATED (05_ScO.scfp) ****
             **** ENERGY FILE WAS UPDATED (05_ScO.en.tmp) ****
----------------------
UHF SPIN CONTAMINATION
----------------------

Warning: in a DFT calculation there is little theoretical justification to 
         calculate <S**2> as in Hartree-Fock theory. We will do it anyways
         but you should keep in mind that the values have only limited relevance

Expectation value of <S**2>     :     0.753573
Ideal value S*(S+1) for S=0.5   :     0.750000
Deviation                       :     0.003573

             **** THE GBW FILE WAS UPDATED (05_ScO.gbw) ****
             **** DENSITY FILE WAS UPDATED (05_ScO.scfp) ****
----------------
ORBITAL ENERGIES
----------------
                 SPIN UP ORBITALS
  NO   OCC          E(Eh)            E(eV) 
   0   1.0000    -161.363631     -4390.9276 
   1   1.0000     -18.897189      -514.2187 
   2   1.0000     -17.499894      -476.1963 
   3   1.0000     -14.422861      -392.4660 
   4   1.0000     -14.422861      -392.4660 
   5   1.0000     -14.412926      -392.1956 
   6   1.0000      -2.041491       -55.5518 
   7   1.0000      -1.255335       -34.1594 
   8   1.0000      -1.246574       -33.9210 
   9   1.0000      -1.246573       -33.9210 
  10   1.0000      -0.787475       -21.4283 
  11   1.0000      -0.259825        -7.0702 
  12   1.0000      -0.259825        -7.0702 
  13   1.0000      -0.252464        -6.8699 
  14   1.0000      -0.154570        -4.2061 
  15   0.0000      -0.101420        -2.7598 
  16   0.0000      -0.101342        -2.7577 
  17   0.0000      -0.079278        -2.1573 
  18   0.0000      -0.079276        -2.1572 
  19   0.0000      -0.051742        -1.4080 
  20   0.0000       0.002088         0.0568 
  21   0.0000       0.002088         0.0568 
  22   0.0000       0.021120         0.5747 
  23   0.0000       0.026360         0.7173 
  24   0.0000       0.038532         1.0485 
  25   0.0000       0.038535         1.0486 
  26   0.0000       0.046264         1.2589 
  27   0.0000       0.046268         1.2590 
  28   0.0000       0.048123         1.3095 
  29   0.0000       0.049283         1.3411 
  30   0.0000       0.049590         1.3494 
  31   0.0000       0.078176         2.1273 
  32   0.0000       0.094152         2.5620 
  33   0.0000       0.096532         2.6268 
  34   0.0000       0.096534         2.6268 
  35   0.0000       0.097528         2.6539 
  36   0.0000       0.099901         2.7184 
  37   0.0000       0.109568         2.9815 
  38   0.0000       0.121170         3.2972 
  39   0.0000       0.121170         3.2972 
  40   0.0000       0.142084         3.8663 
  41   0.0000       0.142084         3.8663 
  42   0.0000       0.142721         3.8836 
  43   0.0000       0.143343         3.9006 
  44   0.0000       0.145384         3.9561 
  45   0.0000       0.148932         4.0527 
  46   0.0000       0.148933         4.0527 
  47   0.0000       0.225702         6.1417 
  48   0.0000       0.281982         7.6731 
  49   0.0000       0.281982         7.6731 
  50   0.0000       0.311513         8.4767 
  51   0.0000       0.345014         9.3883 
  52   0.0000       0.348617         9.4864 
  53   0.0000       0.349370         9.5068 
  54   0.0000       0.371886        10.1195 
  55   0.0000       0.372331        10.1316 
  56   0.0000       0.372331        10.1317 
  57   0.0000       0.396946        10.8014 
  58   0.0000       0.397527        10.8173 
  59   0.0000       0.407998        11.1022 
  60   0.0000       0.412664        11.2291 
  61   0.0000       0.412664        11.2292 
  62   0.0000       0.415877        11.3166 
  63   0.0000       0.415877        11.3166 
  64   0.0000       0.417965        11.3734 
  65   0.0000       0.418429        11.3860 
  66   0.0000       0.492080        13.3902 
  67   0.0000       0.492082        13.3902 
  68   0.0000       0.498544        13.5661 
  69   0.0000       0.498834        13.5740 
  70   0.0000       0.511814        13.9272 
  71   0.0000       0.511814        13.9272 
  72   0.0000       0.577009        15.7012 
  73   0.0000       0.700016        19.0484 
  74   0.0000       0.700019        19.0485 
  75   0.0000       0.708046        19.2669 
  76   0.0000       0.824578        22.4379 
  77   0.0000       0.824578        22.4379 
  78   0.0000       0.846683        23.0394 
  79   0.0000       0.887276        24.1440 
  80   0.0000       0.888769        24.1846 
  81   0.0000       1.078853        29.3571 
  82   0.0000       1.207274        32.8516 
  83   0.0000       1.207276        32.8517 
  84   0.0000       1.337426        36.3932 
  85   0.0000       1.340581        36.4791 
  86   0.0000       1.340623        36.4802 
  87   0.0000       1.554058        42.2881 
  88   0.0000       1.554058        42.2881 
  89   0.0000       1.582613        43.0651 
  90   0.0000       1.652197        44.9586 
  91   0.0000       1.660517        45.1850 
  92   0.0000       1.660523        45.1851 
  93   0.0000       1.734340        47.1938 
  94   0.0000       1.735577        47.2275 
  95   0.0000       1.766620        48.0722 
  96   0.0000       1.766620        48.0722 
  97   0.0000       1.825737        49.6808 
  98   0.0000       1.825738        49.6809 
  99   0.0000       1.841007        50.0963 
 100   0.0000       1.841009        50.0964 
 101   0.0000       1.946919        52.9784 
 102   0.0000       1.969571        53.5948 
 103   0.0000       1.998172        54.3730 
 104   0.0000       1.998173        54.3731 
 105   0.0000       2.020283        54.9747 
 106   0.0000       2.020602        54.9834 
 107   0.0000       2.050595        55.7995 
 108   0.0000       2.050595        55.7995 
 109   0.0000       2.121865        57.7389 
 110   0.0000       2.121865        57.7389 
 111   0.0000       2.222691        60.4825 
 112   0.0000       2.223636        60.5082 
 113   0.0000       2.263566        61.5948 
 114   0.0000       2.451791        66.7166 
 115   0.0000       2.497011        67.9471 
 116   0.0000       2.497012        67.9472 
 117   0.0000       2.640001        71.8381 
 118   0.0000       2.640500        71.8517 
 119   0.0000       2.792694        75.9931 
 120   0.0000       3.308329        90.0242 
 121   0.0000       3.308330        90.0242 
 122   0.0000       3.629370        98.7602 
 123   0.0000       4.231411       115.1425 
 124   0.0000       4.231411       115.1426 
 125   0.0000       5.050627       137.4345 
 126   0.0000       6.337898       172.4630 
 127   0.0000       6.337898       172.4630 
 128   0.0000       6.443102       175.3257 
 129   0.0000       6.444000       175.3501 
 130   0.0000       6.548703       178.1993 
 131   0.0000       6.548703       178.1993 
 132   0.0000       6.682816       181.8487 
 133   0.0000       6.822166       185.6406 
 134   0.0000       6.822740       185.6562 
 135   0.0000       6.995127       190.3471 
 136   0.0000       6.995127       190.3471 
 137   0.0000       7.218808       196.4337 
 138   0.0000      11.540322       314.0281 

                 SPIN DOWN ORBITALS
  NO   OCC          E(Eh)            E(eV) 
   0   1.0000    -161.363348     -4390.9199 
   1   1.0000     -18.897202      -514.2190 
   2   1.0000     -17.499908      -476.1967 
   3   1.0000     -14.421522      -392.4296 
   4   1.0000     -14.421522      -392.4296 
   5   1.0000     -14.412378      -392.1808 
   6   1.0000      -2.038398       -55.4676 
   7   1.0000      -1.250116       -34.0174 
   8   1.0000      -1.242400       -33.8074 
   9   1.0000      -1.242399       -33.8074 
  10   1.0000      -0.791691       -21.5430 
  11   1.0000      -0.261720        -7.1218 
  12   1.0000      -0.261720        -7.1218 
  13   1.0000      -0.252690        -6.8760 
  14   0.0000      -0.089893        -2.4461 
  15   0.0000      -0.077785        -2.1166 
  16   0.0000      -0.077668        -2.1135 
  17   0.0000      -0.061642        -1.6774 
  18   0.0000      -0.056148        -1.5279 
  19   0.0000      -0.056144        -1.5277 
  20   0.0000      -0.036144        -0.9835 
  21   0.0000      -0.036143        -0.9835 
  22   0.0000      -0.024329        -0.6620 
  23   0.0000      -0.014481        -0.3940 
  24   0.0000      -0.013847        -0.3768 
  25   0.0000      -0.010185        -0.2771 
  26   0.0000       0.008136         0.2214 
  27   0.0000       0.008137         0.2214 
  28   0.0000       0.025367         0.6903 
  29   0.0000       0.025897         0.7047 
  30   0.0000       0.025898         0.7047 
  31   0.0000       0.060135         1.6364 
  32   0.0000       0.069095         1.8802 
  33   0.0000       0.070151         1.9089 
  34   0.0000       0.070529         1.9192 
  35   0.0000       0.078042         2.1236 
  36   0.0000       0.078042         2.1236 
  37   0.0000       0.086431         2.3519 
  38   0.0000       0.091016         2.4767 
  39   0.0000       0.091016         2.4767 
  40   0.0000       0.097864         2.6630 
  41   0.0000       0.097864         2.6630 
  42   0.0000       0.108566         2.9542 
  43   0.0000       0.114188         3.1072 
  44   0.0000       0.114188         3.1072 
  45   0.0000       0.118146         3.2149 
  46   0.0000       0.118349         3.2204 
  47   0.0000       0.216646         5.8952 
  48   0.0000       0.268349         7.3021 
  49   0.0000       0.268349         7.3021 
  50   0.0000       0.287759         7.8303 
  51   0.0000       0.322430         8.7738 
  52   0.0000       0.338766         9.2183 
  53   0.0000       0.339032         9.2255 
  54   0.0000       0.355157         9.6643 
  55   0.0000       0.360031         9.7970 
  56   0.0000       0.360032         9.7970 
  57   0.0000       0.370241        10.0748 
  58   0.0000       0.370932        10.0936 
  59   0.0000       0.371131        10.0990 
  60   0.0000       0.374599        10.1933 
  61   0.0000       0.374999        10.2043 
  62   0.0000       0.378403        10.2969 
  63   0.0000       0.378404        10.2969 
  64   0.0000       0.393014        10.6945 
  65   0.0000       0.393014        10.6945 
  66   0.0000       0.463909        12.6236 
  67   0.0000       0.463910        12.6236 
  68   0.0000       0.501171        13.6376 
  69   0.0000       0.501378        13.6432 
  70   0.0000       0.515955        14.0399 
  71   0.0000       0.515955        14.0399 
  72   0.0000       0.562593        15.3089 
  73   0.0000       0.679828        18.4991 
  74   0.0000       0.679829        18.4991 
  75   0.0000       0.691513        18.8170 
  76   0.0000       0.825331        22.4584 
  77   0.0000       0.825332        22.4584 
  78   0.0000       0.844891        22.9907 
  79   0.0000       0.882634        24.0177 
  80   0.0000       0.882684        24.0191 
  81   0.0000       1.045233        28.4422 
  82   0.0000       1.190884        32.4056 
  83   0.0000       1.190884        32.4056 
  84   0.0000       1.334728        36.3198 
  85   0.0000       1.349599        36.7245 
  86   0.0000       1.349741        36.7283 
  87   0.0000       1.561697        42.4959 
  88   0.0000       1.561697        42.4959 
  89   0.0000       1.573521        42.8177 
  90   0.0000       1.648212        44.8501 
  91   0.0000       1.657744        45.1095 
  92   0.0000       1.657745        45.1095 
  93   0.0000       1.744020        47.4572 
  94   0.0000       1.744837        47.4794 
  95   0.0000       1.783653        48.5357 
  96   0.0000       1.783653        48.5357 
  97   0.0000       1.846722        50.2519 
  98   0.0000       1.846811        50.2543 
  99   0.0000       1.849345        50.3232 
 100   0.0000       1.849346        50.3233 
 101   0.0000       1.943355        52.8814 
 102   0.0000       1.980743        53.8988 
 103   0.0000       2.000749        54.4432 
 104   0.0000       2.000749        54.4432 
 105   0.0000       2.042806        55.5876 
 106   0.0000       2.042875        55.5894 
 107   0.0000       2.077178        56.5229 
 108   0.0000       2.077178        56.5229 
 109   0.0000       2.133626        58.0589 
 110   0.0000       2.133626        58.0589 
 111   0.0000       2.227038        60.6008 
 112   0.0000       2.227051        60.6011 
 113   0.0000       2.247414        61.1552 
 114   0.0000       2.457436        66.8702 
 115   0.0000       2.503183        68.1151 
 116   0.0000       2.503183        68.1151 
 117   0.0000       2.648418        72.0671 
 118   0.0000       2.648922        72.0808 
 119   0.0000       2.786685        75.8296 
 120   0.0000       3.311518        90.1110 
 121   0.0000       3.311518        90.1110 
 122   0.0000       3.623138        98.5906 
 123   0.0000       4.232400       115.1695 
 124   0.0000       4.232401       115.1695 
 125   0.0000       5.045091       137.2839 
 126   0.0000       6.334566       172.3723 
 127   0.0000       6.334566       172.3723 
 128   0.0000       6.439163       175.2185 
 129   0.0000       6.440454       175.2537 
 130   0.0000       6.545098       178.1012 
 131   0.0000       6.545098       178.1012 
 132   0.0000       6.676429       181.6749 
 133   0.0000       6.815550       185.4605 
 134   0.0000       6.816144       185.4767 
 135   0.0000       6.986710       190.1181 
 136   0.0000       6.986710       190.1181 
 137   0.0000       7.211667       196.2394 
 138   0.0000      11.526718       313.6579 

                    ********************************
                    * MULLIKEN POPULATION ANALYSIS *
                    ********************************

--------------------------------------------
MULLIKEN ATOMIC CHARGES AND SPIN POPULATIONS
--------------------------------------------
   0 Sc:    0.793189    1.039465
   1 O :   -0.793189   -0.039465
Sum of atomic charges         :   -0.0000000
Sum of atomic spin populations:    1.0000000

-----------------------------------------------------
MULLIKEN REDUCED ORBITAL CHARGES AND SPIN POPULATIONS
-----------------------------------------------------
CHARGE
  0 Scs       :     6.873040  s :     6.873040
      pz      :     4.113280  p :    12.107645
      px      :     3.997183
      py      :     3.997183
      dz2     :     0.574905  d :     1.224131
      dxz     :     0.324613
      dyz     :     0.324613
      dx2y2   :     0.000000
      dxy     :     0.000000
      f0      :     0.011009  f :     0.004163
      f+1     :    -0.003423
      f-1     :    -0.003423
      f+2     :     0.000000
      f-2     :     0.000000
      f+3     :     0.000000
      f-3     :     0.000000
      g0      :     0.000668  g :    -0.002169
      g+1     :    -0.001419
      g-1     :    -0.001419
      g+2     :     0.000000
      g-2     :     0.000000
      g+3     :     0.000000
      g-3     :     0.000000
      g+4     :     0.000000
      g-4     :     0.000000
  1 O s       :     3.932715  s :     3.932715
      pz      :     1.489032  p :     4.819098
      px      :     1.665033
      py      :     1.665033
      dz2     :     0.004738  d :     0.036123
      dxz     :     0.015692
      dyz     :     0.015692
      dx2y2   :    -0.000000
      dxy     :     0.000000
      f0      :     0.000611  f :     0.005254
      f+1     :     0.002321
      f-1     :     0.002321
      f+2     :    -0.000000
      f-2     :     0.000000
      f+3     :     0.000000
      f-3     :     0.000000

SPIN
  0 Scs       :     0.784481  s :     0.784481
      pz      :     0.122875  p :     0.127466
      px      :     0.002295
      py      :     0.002295
      dz2     :     0.085676  d :     0.131071
      dxz     :     0.022698
      dyz     :     0.022698
      dx2y2   :     0.000000
      dxy     :     0.000000
      f0      :     0.000071  f :    -0.003282
      f+1     :    -0.001676
      f-1     :    -0.001676
      f+2     :     0.000000
      f-2     :     0.000000
      f+3     :     0.000000
      f-3     :     0.000000
      g0      :     0.000004  g :    -0.000271
      g+1     :    -0.000138
      g-1     :    -0.000138
      g+2     :     0.000000
      g-2     :     0.000000
      g+3     :     0.000000
      g-3     :     0.000000
      g+4     :     0.000000
      g-4     :     0.000000
  1 O s       :     0.020486  s :     0.020486
      pz      :    -0.014249  p :    -0.060912
      px      :    -0.023332
      py      :    -0.023332
      dz2     :     0.000374  d :     0.000794
      dxz     :     0.000210
      dyz     :     0.000210
      dx2y2   :    -0.000000
      dxy     :     0.000000
      f0      :     0.000282  f :     0.000168
      f+1     :    -0.000057
      f-1     :    -0.000057
      f+2     :    -0.000000
      f-2     :     0.000000
      f+3     :     0.000000
      f-3     :     0.000000


                     *******************************
                     * LOEWDIN POPULATION ANALYSIS *
                     *******************************

-------------------------------------------
LOEWDIN ATOMIC CHARGES AND SPIN POPULATIONS
-------------------------------------------
   0 Sc:    0.701450    0.963821
   1 O :   -0.701450    0.036179

----------------------------------------------------
LOEWDIN REDUCED ORBITAL CHARGES AND SPIN POPULATIONS
----------------------------------------------------
CHARGE
  0 Scs       :     6.434448  s :     6.434448
      pz      :     4.129972  p :    11.933756
      px      :     3.901892
      py      :     3.901892
      dz2     :     0.739512  d :     1.551929
      dxz     :     0.406209
      dyz     :     0.406209
      dx2y2   :     0.000000
      dxy     :     0.000000
      f0      :     0.120743  f :     0.247286
      f+1     :     0.063272
      f-1     :     0.063272
      f+2     :     0.000000
      f-2     :     0.000000
      f+3     :     0.000000
      f-3     :     0.000000
      g0      :     0.056837  g :     0.131131
      g+1     :     0.037147
      g-1     :     0.037147
      g+2     :     0.000000
      g-2     :     0.000000
      g+3     :     0.000000
      g-3     :     0.000000
      g+4     :     0.000000
      g-4     :     0.000000
  1 O s       :     3.560238  s :     3.560238
      pz      :     1.683861  p :     4.645328
      px      :     1.480734
      py      :     1.480734
      dz2     :     0.202727  d :     0.361338
      dxz     :     0.079305
      dyz     :     0.079305
      dx2y2   :     0.000000
      dxy     :     0.000000
      f0      :     0.071662  f :     0.134546
      f+1     :     0.031442
      f-1     :     0.031442
      f+2     :     0.000000
      f-2     :     0.000000
      f+3     :     0.000000
      f-3     :     0.000000

SPIN
  0 Scs       :     0.734112  s :     0.734112
      pz      :     0.120902  p :     0.120579
      px      :    -0.000161
      py      :    -0.000161
      dz2     :     0.078953  d :     0.117780
      dxz     :     0.019414
      dyz     :     0.019414
      dx2y2   :     0.000000
      dxy     :     0.000000
      f0      :     0.000446  f :    -0.006248
      f+1     :    -0.003347
      f-1     :    -0.003347
      f+2     :     0.000000
      f-2     :     0.000000
      f+3     :     0.000000
      f-3     :     0.000000
      g0      :    -0.000246  g :    -0.002402
      g+1     :    -0.001078
      g-1     :    -0.001078
      g+2     :     0.000000
      g-2     :     0.000000
      g+3     :     0.000000
      g-3     :     0.000000
      g+4     :     0.000000
      g-4     :     0.000000
  1 O s       :     0.030021  s :     0.030021
      pz      :     0.033883  p :     0.001584
      px      :    -0.016150
      py      :    -0.016150
      dz2     :     0.000366  d :     0.002617
      dxz     :     0.001125
      dyz     :     0.001125
      dx2y2   :    -0.000000
      dxy     :     0.000000
      f0      :     0.001563  f :     0.001958
      f+1     :     0.000198
      f-1     :     0.000198
      f+2     :     0.000000
      f-2     :     0.000000
      f+3     :     0.000000
      f-3     :     0.000000


                      *****************************
                      * MAYER POPULATION ANALYSIS *
                      *****************************

  NA   - Mulliken gross atomic population
  ZA   - Total nuclear charge
  QA   - Mulliken gross atomic charge
  VA   - Mayer's total valence
  BVA  - Mayer's bonded valence
  FA   - Mayer's free valence

  ATOM       NA         ZA         QA         VA         BVA        FA
  0 Sc    20.2068    21.0000     0.7932     2.9222     1.9916     0.9306
  1 O      8.7932     8.0000    -0.7932     1.9946     1.9916     0.0031

  Mayer bond orders larger than 0.100000
B(  0-Sc,  1-O ) :   1.9916 

-------
TIMINGS
-------

Total SCF time: 0 days 0 hours 0 min 6 sec 

Total time                  ....       6.279 sec
Sum of individual times     ....       6.105 sec  ( 97.2%)

Fock matrix formation       ....       5.461 sec  ( 87.0%)
  Split-RI-J                ....       4.035 sec  ( 73.9% of F)
  XC integration            ....       1.213 sec  ( 22.2% of F)
    Basis function eval.    ....       0.149 sec  ( 12.3% of XC)
    Density eval.           ....       0.182 sec  ( 15.0% of XC)
    XC-Functional eval.     ....       0.031 sec  (  2.5% of XC)
    XC-Potential eval.      ....       0.550 sec  ( 45.4% of XC)
Diagonalization             ....       0.145 sec  (  2.3%)
Density matrix formation    ....       0.019 sec  (  0.3%)
Population analysis         ....       0.007 sec  (  0.1%)
Initial guess               ....       0.101 sec  (  1.6%)
Orbital Transformation      ....       0.000 sec  (  0.0%)
Orbital Orthonormalization  ....       0.000 sec  (  0.0%)
DIIS solution               ....       0.055 sec  (  0.9%)
Grid generation             ....       0.316 sec  (  5.0%)


-------------------------------------------------------------------------------
                          DFT DISPERSION CORRECTION                            
                                                                               
                              DFTD3 V3.1  Rev 1                                
                          USING Becke-Johnson damping                          
-------------------------------------------------------------------------------
The SCAN functional is recognized
Active option DFTDOPT                   ...         4   

molecular C6(AA) [au] = 688.943414 


            DFT-D V3
 parameters
 s6 scaling factor         :     1.0000 
 a1 scaling factor         :     0.5380 
 s8 scaling factor         :     0.0000 
 a2 scaling factor         :     5.4200 
 ad hoc parameters k1-k3   :    16.0000     1.3333    -4.0000 

 Edisp/kcal,au: -0.067166083410  -0.000107035956 
 E6   /kcal   :  -0.067166083 
 E8   /kcal   :  -0.000000000 
 % E8         :   0.000000000 

-------------------------   ----------------
Dispersion correction           -0.000107036
-------------------------   ----------------


-------------------------   --------------------
FINAL SINGLE POINT ENERGY      -835.987038070145
-------------------------   --------------------


                            ***************************************
                            *     ORCA property calculations      *
                            ***************************************

                                    ---------------------
                                    Active property flags
                                    ---------------------
   (+) Dipole Moment


------------------------------------------------------------------------------
                       ORCA ELECTRIC PROPERTIES CALCULATION
------------------------------------------------------------------------------

Dipole Moment Calculation                       ... on
Quadrupole Moment Calculation                   ... off
Polarizability Calculation                      ... off
GBWName                                         ... 05_ScO.gbw
Electron density file                           ... 05_ScO.scfp
The origin for moment calculation is the CENTER OF MASS  = ( 0.000000,  0.000000  1.140009)

-------------
DIPOLE MOMENT
-------------
                                X             Y             Z
Electronic contribution:      0.00000       0.00000      -2.69671
Nuclear contribution   :      0.00000       0.00000       1.22710
                        -----------------------------------------
Total Dipole Moment    :      0.00000       0.00000      -1.46961
                        -----------------------------------------
Magnitude (a.u.)       :      1.46961
Magnitude (Debye)      :      3.73545



--------------------
Rotational spectrum 
--------------------
 
Rotational constants in cm-1:     0.000000     0.512165     0.512165 
Rotational constants in MHz :     0.000000 15354.316375 15354.316375 

 Dipole components along the rotational axes: 
x,y,z [a.u.] :    -1.469611     0.000000     0.000000 
x,y,z [Debye]:    -3.735455     0.000000     0.000001 

 

Timings for individual modules:

Sum of individual times         ...        9.288 sec (=   0.155 min)
GTO integral calculation        ...        2.680 sec (=   0.045 min)  28.9 %
SCF iterations                  ...        6.608 sec (=   0.110 min)  71.1 %
                             ****ORCA TERMINATED NORMALLY****
TOTAL RUN TIME: 0 days 0 hours 0 minutes 9 seconds 868 msec
