
                                 *****************
                                 * O   R   C   A *
                                 *****************

           --- An Ab Initio, DFT and Semiempirical electronic structure package ---

                  #######################################################
                  #                        -***-                        #
                  #          Department of theory and spectroscopy      #
                  #               Directorship: Frank Neese             #
                  #        Max Planck Institute fuer Kohlenforschung    #
                  #                Kaiser Wilhelm Platz 1               #
                  #                 D-45470 Muelheim/Ruhr               #
                  #                      Germany                        #
                  #                                                     #
                  #                  All rights reserved                #
                  #                        -***-                        #
                  #######################################################


                         Program Version 4.2.0 -  RELEASE  -


 With contributions from (in alphabetic order):
   Daniel Aravena         : Magnetic Suceptibility
   Michael Atanasov       : Ab Initio Ligand Field Theory (pilot matlab implementation)
   Alexander A. Auer      : GIAO ZORA, VPT2
   Ute Becker             : Parallelization
   Giovanni Bistoni       : ED, misc. LED, open-shell LED, HFLED
   Martin Brehm           : Molecular dynamics
   Dmytro Bykov           : SCF Hessian
   Vijay G. Chilkuri      : MRCI spin determinant printing, contributions to CSF-ICE
   Dipayan Datta          : RHF DLPNO-CCSD density
   Achintya Kumar Dutta   : EOM-CC, STEOM-CC
   Dmitry Ganyushin       : Spin-Orbit,Spin-Spin,Magnetic field MRCI
   Miquel Garcia          : C-PCM Hessian, Gaussian charge scheme
   Yang Guo               : DLPNO-NEVPT2, CIM, IAO-localization
   Andreas Hansen         : Spin unrestricted coupled pair/coupled cluster methods
   Benjamin Helmich-Paris : CASSCF linear response (MC-RPA)
   Lee Huntington         : MR-EOM, pCC
   Robert Izsak           : Overlap fitted RIJCOSX, COSX-SCS-MP3, EOM
   Christian Kollmar      : KDIIS, OOCD, Brueckner-CCSD(T), CCSD density
   Simone Kossmann        : Meta GGA functionals, TD-DFT gradient, OOMP2, MP2 Hessian
   Martin Krupicka        : AUTO-CI
   Lucas Lang             : DCDCAS
   Dagmar Lenk            : GEPOL surface, SMD
   Dimitrios Liakos       : Extrapolation schemes; Compound Job, initial MDCI parallelization
   Dimitrios Manganas     : Further ROCIS development; embedding schemes
   Dimitrios Pantazis     : SARC Basis sets
   Taras Petrenko         : DFT Hessian,TD-DFT gradient, ASA, ECA, R-Raman, ABS, FL, XAS/XES, NRVS
   Peter Pinski           : DLPNO-MP2, DLPNO-MP2 Gradient
   Christoph Reimann      : Effective Core Potentials
   Marius Retegan         : Local ZFS, SOC
   Christoph Riplinger    : Optimizer, TS searches, QM/MM, DLPNO-CCSD(T), (RO)-DLPNO pert. Triples
   Tobias Risthaus        : Range-separated hybrids, TD-DFT gradient, RPA, STAB
   Michael Roemelt        : Original ROCIS implementation
   Masaaki Saitow         : Open-shell DLPNO-CCSD energy and density
   Barbara Sandhoefer     : DKH picture change effects
   Avijit Sen             : IP-ROCIS
   Kantharuban Sivalingam : CASSCF convergence, NEVPT2, FIC-MRCI
   Bernardo de Souza      : ESD, SOC TD-DFT
   Georgi Stoychev        : AutoAux, RI-MP2 NMR
   Willem Van den Heuvel  : Paramagnetic NMR
   Boris Wezisla          : Elementary symmetry handling
   Frank Wennmohs         : Technical directorship


 We gratefully acknowledge several colleagues who have allowed us to
 interface, adapt or use parts of their codes:
   Stefan Grimme, W. Hujo, H. Kruse,             : VdW corrections, initial TS optimization,
                  C. Bannwarth                     DFT functionals, gCP, sTDA/sTD-DF
   Ed Valeev, F. Pavosevic, A. Kumar             : LibInt (2-el integral package), F12 methods
   Garnet Chan, S. Sharma, J. Yang, R. Olivares  : DMRG
   Ulf Ekstrom                                   : XCFun DFT Library
   Mihaly Kallay                                 : mrcc  (arbitrary order and MRCC methods)
   Andreas Klamt, Michael Diedenhofen            : otool_cosmo (COSMO solvation model)
   Jiri Pittner, Ondrej Demel                    : Mk-CCSD
   Frank Weinhold                                : gennbo (NPA and NBO analysis)
   Christopher J. Cramer and Donald G. Truhlar   : smd solvation model
   Lars Goerigk                                  : TD-DFT with DH, B97 family of functionals
   V. Asgeirsson, H. Jonsson                     : NEB implementation
   FAccTs GmbH                                   : IRC, NEB, NEB-TS, Multilevel, MM, QM/MM, CI optimization
   S Lehtola, MJT Oliveira, MAL Marques          : LibXC Library


 Your calculation uses the libint2 library for the computation of 2-el integrals
 For citations please refer to: http://libint.valeyev.net

 Your ORCA version has been built with support for libXC version: 4.2.3
 For citations please refer to: https://tddft.org/programs/libxc/

 This ORCA versions uses:
   CBLAS   interface :  Fast vector & matrix operations
   LAPACKE interface :  Fast linear algebra routines
   SCALAPACK package :  Parallel linear algebra routines


Your calculation utilizes the atom-pairwise dispersion correction
with the Becke-Johnson damping scheme (D3BJ)
Cite in your paper:
S.Grimme, S.Ehrlich, L.Goerigk, J Comput Chem, (2011), 32, 1456–1465 
S.Grimme, J.Antony, S.Ehrlich and H.Krieg, J.Chem.Phys., 132, (2010), 154104 
   

----- Orbital basis set information -----
Your calculation utilizes the basis: aug-cc-pVTZ 
    H, B-Ne : Obtained from the ccRepo (grant-hill.group.shef.ac.uk/ccrepo) Feb. 2017
              R. A. Kendall, T. H. Dunning, Jr., R. J. Harrison, J. Chem. Phys. 96, 6796 (1992)
         He : Obtained from the ccRepo (grant-hill.group.shef.ac.uk/ccrepo) Feb. 2017
              D. E. Woon, T. H. Dunning, Jr., J. Chem. Phys. 100, 2975 (1994)
  Li-Be, Na : Obtained from the ccRepo (grant-hill.group.shef.ac.uk/ccrepo) Feb. 2017
              B. P. Prascher, D. E. Woon, K. A. Peterson, T. H. Dunning, Jr., A. K. Wilson, Theor. Chem. Acc. 128, 69 (2011)
         Mg : Obtained from the Peterson Research Group Website (tyr0.chem.wsu.edu/~kipeters) Feb. 2017
              B. P. Prascher, D. E. Woon, K. A. Peterson, T. H. Dunning, Jr., A. K. Wilson, Theor. Chem. Acc. 128, 69 (2011)
      Al-Ar : Obtained from the ccRepo (grant-hill.group.shef.ac.uk/ccrepo) Feb. 2017
              D. E. Woon, T. H. Dunning, Jr., J. Chem. Phys. 98, 1358 (1993)
      Sc-Zn : Obtained from the ccRepo (grant-hill.group.shef.ac.uk/ccrepo) Feb. 2017
              N. B. Balabanov, K. A. Peterson, J. Chem. Phys. 123, 064107 (2005)
              N. B. Balabanov, K. A. Peterson, J. Chem. Phys. 125, 074110 (2006)
      Ga-Kr : Obtained from the ccRepo (grant-hill.group.shef.ac.uk/ccrepo) Feb. 2017
              A. K. Wilson, D. E. Woon, K. A. Peterson, T. H. Dunning, Jr., J. Chem. Phys. 110, 7667 (1999)
     Ag, Au : Obtained from the Peterson Research Group Website (tyr0.chem.wsu.edu/~kipeters) Feb. 2017
              K. A. Peterson, C. Puzzarini, Theor. Chem. Acc. 114, 283 (2005)

----- AuxJ basis set information -----
Your calculation utilizes the auxiliary basis: def2/J
   F. Weigend, Phys. Chem. Chem. Phys. 8, 1057 (2006).

================================================================================
                                        WARNINGS
                       Please study these warnings very carefully!
================================================================================


WARNING: your system is open-shell and RHF/RKS was chosen
  ===> : WILL SWITCH to UHF/UKS


WARNING: The SCAN functional is very grid-sensitive!
         Use at least GRID5 and a higher intacc

INFO   : the flag for use of LIBINT has been found!

================================================================================
                                       INPUT FILE
================================================================================
NAME = 07_TiH.in
|  1> #
|  2> # 07_TiH scanfunc/aug-cc-pvtz
|  3> #
|  4> ! scanfunc d3bj aug-cc-pvtz def2/j grid4 nofinalgrid
|  5> 
|  6> *xyz 0 4
|  7>   Ti  0.00000000000000      0.00000000000000      0.11662089429905
|  8>   H   0.00000000000000      0.00000000000000      1.88337910570095
|  9> *
| 10> 
| 11> %pal
| 12> nprocs 24
| 13> end
| 14> 
| 15> 
| 16>                          ****END OF INPUT****
================================================================================

                       ****************************
                       * Single Point Calculation *
                       ****************************

---------------------------------
CARTESIAN COORDINATES (ANGSTROEM)
---------------------------------
  Ti     0.000000    0.000000    0.116621
  H      0.000000    0.000000    1.883379

----------------------------
CARTESIAN COORDINATES (A.U.)
----------------------------
  NO LB      ZA    FRAG     MASS         X           Y           Z
   0 Ti   22.0000    0    47.900    0.000000    0.000000    0.220382
   1 H     1.0000    0     1.008    0.000000    0.000000    3.559071

--------------------------------
INTERNAL COORDINATES (ANGSTROEM)
--------------------------------
 Ti     0   0   0     0.000000000000     0.00000000     0.00000000
 H      1   0   0     1.766758211402     0.00000000     0.00000000

---------------------------
INTERNAL COORDINATES (A.U.)
---------------------------
 Ti     0   0   0     0.000000000000     0.00000000     0.00000000
 H      1   0   0     3.338689164406     0.00000000     0.00000000

---------------------
BASIS SET INFORMATION
---------------------
There are 2 groups of distinct atoms

 Group   1 Type Ti  : 116s77p23d3f2g contracted to 8s7p5d3f2g pattern {19191919191911/151515151511/77711/111/11}
 Group   2 Type H   : 6s3p2d contracted to 4s3p2d pattern {3111/111/11}

Atom   0Ti   basis set group =>   1
Atom   1H    basis set group =>   2
---------------------------------
AUXILIARY/J BASIS SET INFORMATION
---------------------------------
There are 2 groups of distinct atoms

 Group   1 Type Ti  : 19s5p5d3f3g contracted to 8s5p5d2f3g pattern {121111111/11111/11111/21/111}
 Group   2 Type H   : 5s2p1d contracted to 3s1p1d pattern {311/2/1}

Atom   0Ti   basis set group =>   1
Atom   1H    basis set group =>   2


           ************************************************************
           *        Program running with 24 parallel MPI-processes    *
           *              working on a common directory               *
           ************************************************************
------------------------------------------------------------------------------
                           ORCA GTO INTEGRAL CALCULATION
                           -- RI-GTO INTEGRALS CHOSEN --
------------------------------------------------------------------------------

                         BASIS SET STATISTICS AND STARTUP INFO

Gaussian basis set:
 # of primitive gaussian shells          ...  232
 # of primitive gaussian functions       ...  526
 # of contracted shells                  ...   34
 # of contracted basis functions         ...  116
 Highest angular momentum                ...    4
 Maximum contraction depth               ...   19
Auxiliary gaussian basis set:
 # of primitive gaussian shells          ...   43
 # of primitive gaussian functions       ...  123
 # of contracted shells                  ...   28
 # of contracted aux-basis functions     ...  100
 Highest angular momentum                ...    4
 Maximum contraction depth               ...   12
Ratio of auxiliary to basis functions    ...  0.86
Integral package used                  ... LIBINT
 One Electron integrals                  ... done
 Ordering auxiliary basis shells         ... done
 Integral threshhold             Thresh  ...  1.000e-10
 Primitive cut-off               TCut    ...  1.000e-11
 Pre-screening matrix                    ... done
 Shell pair data                         ... 
 Ordering of the shell pairs             ... done (   0.000 sec) 595 of 595 pairs
 Determination of significant pairs      ... done (   0.000 sec)
 Creation of shell pair data             ... done (   0.001 sec)
 Storage of shell pair data              ... done (   0.014 sec)
 Shell pair data done in (   0.015 sec)
 Computing two index integrals           ... done
 Cholesky decomposition of the V-matrix  ... done


Timings:
 Total evaluation time                   ...   2.140 sec (  0.036 min)
 One electron matrix time                ...   0.037 sec (  0.001 min) =  1.7%
 Schwartz matrix evaluation time         ...   2.059 sec (  0.034 min) = 96.2%
 Two index repulsion integral time       ...   0.001 sec (  0.000 min) =  0.0%
 Cholesky decomposition of V             ...   0.001 sec (  0.000 min) =  0.0%
 Three index repulsion integral time     ...   0.000 sec (  0.000 min) =  0.0%



           ************************************************************
           *        Program running with 24 parallel MPI-processes    *
           *              working on a common directory               *
           ************************************************************
-------------------------------------------------------------------------------
                                 ORCA SCF
-------------------------------------------------------------------------------

------------
SCF SETTINGS
------------
Hamiltonian:
 Density Functional     Method          .... DFT(GTOs)
 Exchange Functional    Exchange        .... SCAN
 Correlation Functional Correlation     .... SCAN
 Gradients option       PostSCFGGA      .... off
   Density functional embedding theory  .... OFF
   NL short-range parameter             ....  6.400000
 RI-approximation to the Coulomb term is turned on
   Number of auxiliary basis functions  .... 100


General Settings:
 Integral files         IntName         .... 07_TiH
 Hartree-Fock type      HFTyp           .... UHF
 Total Charge           Charge          ....    0
 Multiplicity           Mult            ....    4
 Number of Electrons    NEL             ....   23
 Basis Dimension        Dim             ....  116
 Nuclear Repulsion      ENuc            ....      6.5894124660 Eh

Convergence Acceleration:
 DIIS                   CNVDIIS         .... on
   Start iteration      DIISMaxIt       ....    12
   Startup error        DIISStart       ....  0.200000
   # of expansion vecs  DIISMaxEq       ....     5
   Bias factor          DIISBfac        ....   1.050
   Max. coefficient     DIISMaxC        ....  10.000
 Newton-Raphson         CNVNR           .... off
 SOSCF                  CNVSOSCF        .... off
 Level Shifting         CNVShift        .... on
   Level shift para.    LevelShift      ....    0.2500
   Turn off err/grad.   ShiftErr        ....    0.0010
 Zerner damping         CNVZerner       .... off
 Static damping         CNVDamp         .... on
   Fraction old density DampFac         ....    0.7000
   Max. Damping (<1)    DampMax         ....    0.9800
   Min. Damping (>=0)   DampMin         ....    0.0000
   Turn off err/grad.   DampErr         ....    0.1000
 Fernandez-Rico         CNVRico         .... off

SCF Procedure:
 Maximum # iterations   MaxIter         ....   125
 SCF integral mode      SCFMode         .... Direct
   Integral package                     .... LIBINT
 Reset frequency        DirectResetFreq ....    20
 Integral Threshold     Thresh          ....  1.000e-10 Eh
 Primitive CutOff       TCut            ....  1.000e-11 Eh

Convergence Tolerance:
 Convergence Check Mode ConvCheckMode   .... Total+1el-Energy
 Convergence forced     ConvForced      .... 0
 Energy Change          TolE            ....  1.000e-06 Eh
 1-El. energy change                    ....  1.000e-03 Eh
 DIIS Error             TolErr          ....  1.000e-06


Diagonalization of the overlap matrix:
Smallest eigenvalue                        ... 6.629e-05
Time for diagonalization                   ...    0.003 sec
Threshold for overlap eigenvalues          ... 1.000e-08
Number of eigenvalues below threshold      ... 0
Time for construction of square roots      ...    0.002 sec
Total time needed                          ...    0.005 sec

-------------------
DFT GRID GENERATION
-------------------

General Integration Accuracy     IntAcc      ...  4.670
Radial Grid Type                 RadialGrid  ... Gauss-Chebyshev
Angular Grid (max. acc.)         AngularGrid ... Lebedev-302
Angular grid pruning method      GridPruning ... 3 (G Style)
Weight generation scheme         WeightScheme... Becke
Basis function cutoff            BFCut       ...    1.0000e-10
Integration weight cutoff        WCut        ...    1.0000e-14
Grids for H and He will be reduced by one unit

# of grid points (after initial pruning)     ...  13058 (   0.0 sec)
# of grid points (after weights+screening)   ...  13024 (   0.0 sec)
nearest neighbour list constructed           ...    0.0 sec
Grid point re-assignment to atoms done       ...    0.0 sec
Grid point division into batches done        ...    0.1 sec
Reduced shell lists constructed in    0.1 sec

Total number of grid points                  ...    13024
Total number of batches                      ...      204
Average number of points per batch           ...       63
Average number of grid points per atom       ...     6512
Average number of shells per batch           ...    19.60 (57.65%)
Average number of basis functions per batch  ...    55.00 (47.41%)
Average number of large shells per batch     ...    12.00 (61.22%)
Average number of large basis fcns per batch ...    33.00 (60.00%)
Maximum spatial batch extension              ...  31.41, 28.57, 18.88 au
Average spatial batch extension              ...   1.02,  0.93,  0.73 au

Time for grid setup =    0.138 sec

------------------------------
INITIAL GUESS: MODEL POTENTIAL
------------------------------
Loading Hartree-Fock densities                     ... done
Calculating cut-offs                               ... done
Setting up the integral package                    ... done
Initializing the effective Hamiltonian             ... done
Starting the Coulomb interaction                   ... done (   0.0 sec)
Reading the grid                                   ... done
Mapping shells                                     ... done
Starting the XC term evaluation                    ... done (   0.0 sec)
  promolecular density results
     # of electrons  =     22.999521348
     EX              =    -46.340559178
     EC              =     -0.392588623
     EX+EC           =    -46.733147801
Transforming the Hamiltonian                       ... done (   0.0 sec)
Diagonalizing the Hamiltonian                      ... done (   0.0 sec)
Back transforming the eigenvectors                 ... done (   0.0 sec)
Now organizing SCF variables                       ... done
                      ------------------
                      INITIAL GUESS DONE (   0.3 sec)
                      ------------------
--------------
SCF ITERATIONS
--------------
ITER       Energy         Delta-E        Max-DP      RMS-DP      [F,P]     Damp
               ***  Starting incremental Fock matrix formation  ***
  0   -849.6504969174   0.000000000000 0.56215102  0.01292625  0.3642166 0.7000
  1   -849.8193118526  -0.168814935192 0.33975109  0.00901175  0.1318862 0.7000
                               ***Turning on DIIS***
  2   -849.8635788040  -0.044266951450 0.78704288  0.01871447  0.0550118 0.0000
  3   -849.9313411420  -0.067762337976 0.08920185  0.00218176  0.0933940 0.0000
  4   -849.9686682570  -0.037327114965 0.06844143  0.00139671  0.0276756 0.0000
  5   -849.9725950110  -0.003926753977 0.01640738  0.00044473  0.0100136 0.0000
  6   -849.9735310738  -0.000936062834 0.00668620  0.00019905  0.0067099 0.0000
  7   -849.9738917722  -0.000360698412 0.00529943  0.00010894  0.0032498 0.0000
  8   -849.9740137233  -0.000121951118 0.00445543  0.00007789  0.0016892 0.0000
  9   -849.9740647099  -0.000050986561 0.00328248  0.00006779  0.0011302 0.0000
 10   -849.9740887298  -0.000024019965 0.62879990  0.00610635  0.0006696 0.0000
 11   -849.9457315470   0.028357182827 0.00012035  0.00000173  0.1244064 0.7000
 12   -849.9457001959   0.000031351120 0.00003314  0.00000074  0.1244572 0.7000
 13   -849.9456725644   0.000027631532 0.00023999  0.00000356  0.1244921 0.7000
 14   -849.9456689301   0.000003634248 0.00055367  0.00000841  0.1244867 0.7000
 15   -849.9457269932  -0.000058063113 0.13883266  0.00364764  0.1243843 0.7000
 16   -849.9692761876  -0.023549194387 0.14477939  0.00203526  0.0483815 0.0000
 17   -849.9904914502  -0.021215262556 0.02810579  0.00048725  0.0459754 0.0000
 18   -849.9950653403  -0.004573890107 0.01819704  0.00042335  0.0237988 0.0000
 19   -849.9969343857  -0.001869045401 0.01113889  0.00026246  0.0117289 0.0000
               *** Restarting incremental Fock matrix formation ***
                                   *** Resetting DIIS ***
 20   -849.9977492338  -0.000814848139 0.01287805  0.00032484  0.0048660 0.0000
 21   -849.9981151573  -0.000365923477 0.01217412  0.00030659  0.0043295 0.0000
 22   -849.9983919021  -0.000276744778 0.01161295  0.00019237  0.0028795 0.0000
 23   -849.9986189258  -0.000227023678 0.01211004  0.00019129  0.0029249 0.0000
 24   -849.9988374073  -0.000218481514 0.00957619  0.00015418  0.0029638 0.0000
 25   -849.9990209136  -0.000183506296 0.01052002  0.00018344  0.0029461 0.0000
 26   -849.9992029759  -0.000182062351 0.00846084  0.00011346  0.0029695 0.0000
 27   -849.9993421822  -0.000139206292 0.01368625  0.00023793  0.0028890 0.0000
 28   -849.9995129607  -0.000170778534 0.00916215  0.00012339  0.0029505 0.0000
 29   -849.9996544282  -0.000141467470 0.01129364  0.00021946  0.0028460 0.0000
 30   -849.9998119622  -0.000157533935 0.00790108  0.00010680  0.0028285 0.0000
 31   -849.9999279599  -0.000115997723 0.01392638  0.00027756  0.0026441 0.0000
 32   -850.0000712973  -0.000143337441 0.00716022  0.00012947  0.0026658 0.0000
 33   -850.0001770081  -0.000105710771 0.01171959  0.00024421  0.0024110 0.0000
 34   -850.0002902577  -0.000113249615 0.00693229  0.00012174  0.0024011 0.0000
 35   -850.0003777653  -0.000087507567 0.01181886  0.00022344  0.0021459 0.0000
 36   -850.0004679842  -0.000090218918 0.00675753  0.00012535  0.0021533 0.0000
 37   -850.0005376138  -0.000069629625 0.00939480  0.00015516  0.0018920 0.0000
 38   -850.0006057854  -0.000068171612 0.00707571  0.00007983  0.0019080 0.0000
 39   -850.0006635828  -0.000057797411 0.00916278  0.00012766  0.0017773 0.0000
               *** Restarting incremental Fock matrix formation ***
                                   *** Resetting DIIS ***
 40   -850.0007240580  -0.000060475200 0.00650264  0.00011691  0.0017819 0.0000
 41   -850.0007606471  -0.000036589112 0.00412978  0.00008643  0.0015789 0.0000
 42   -850.0007893855  -0.000028738333 0.00404743  0.00004441  0.0015204 0.0000
 43   -850.0008148650  -0.000025479490 0.00428500  0.00005039  0.0014912 0.0000
 44   -850.0008413764  -0.000026511447 0.00522549  0.00006752  0.0014689 0.0000
 45   -850.0008727249  -0.000031348472 0.00432804  0.00004380  0.0014674 0.0000
 46   -850.0008976630  -0.000024938078 0.00678402  0.00010087  0.0014084 0.0000
 47   -850.0009351137  -0.000037450722 0.00327631  0.00005082  0.0014487 0.0000
 48   -850.0009537271  -0.000018613410 0.00678610  0.00011499  0.0013152 0.0000
 49   -850.0009892674  -0.000035540326 0.00509083  0.00005224  0.0013763 0.0000
 50   -850.0010163742  -0.000027106796 0.00681884  0.00010284  0.0012959 0.0000
 51   -850.0010485675  -0.000032193298 0.00426064  0.00004646  0.0012996 0.0000
 52   -850.0010706670  -0.000022099463 0.00917540  0.00017002  0.0011908 0.0000
 53   -850.0011045161  -0.000033849090 0.00476415  0.00009927  0.0012698 0.0000
 54   -850.0011252121  -0.000020695980 0.00524529  0.00006999  0.0010694 0.0000
 55   -850.0011463043  -0.000021092225 0.00690533  0.00009406  0.0010749 0.0000
 56   -850.0011699093  -0.000023604997 0.00373971  0.00005270  0.0010716 0.0000
 57   -850.0011870851  -0.000017175868 0.03737584  0.00035122  0.0009482 0.0000
 58   -850.0012819461  -0.000094860971 0.00627543  0.00006910  0.0006242 0.0000
 59   -850.0012731455   0.000008800610 0.00221234  0.00003165  0.0004780 0.0000
               *** Restarting incremental Fock matrix formation ***
                                   *** Resetting DIIS ***
 60   -850.0012777875  -0.000004642016 0.00640536  0.00007641  0.0004264 0.0000
 61   -850.0012872303  -0.000009442767 0.00249033  0.00003439  0.0004174 0.0000
 62   -850.0012902898  -0.000003059518 0.00849560  0.00008177  0.0003821 0.0000
 63   -850.0012973899  -0.000007100064 0.00701923  0.00006426  0.0001823 0.0000
 64   -850.0013003008  -0.000002910885 0.00209110  0.00001859  0.0000641 0.0000
                 **** Energy Check signals convergence ****

               *****************************************************
               *                     SUCCESS                       *
               *           SCF CONVERGED AFTER  65 CYCLES          *
               *****************************************************


----------------
TOTAL SCF ENERGY
----------------

Total Energy       :         -850.00130081 Eh          -23129.71129 eV

Components:
Nuclear Repulsion  :            6.58941247 Eh             179.30703 eV
Electronic Energy  :         -856.59071328 Eh          -23309.01832 eV
One Electron Energy:        -1178.52388313 Eh          -32069.26523 eV
Two Electron Energy:          321.93316985 Eh            8760.24691 eV

Virial components:
Potential Energy   :        -1698.63396108 Eh          -46222.17997 eV
Kinetic Energy     :          848.63266027 Eh           23092.46868 eV
Virial Ratio       :            2.00161276


DFT components:
N(Alpha)           :       12.999997663266 electrons
N(Beta)            :        9.999998772572 electrons
N(Total)           :       22.999996435838 electrons
E(X)               :      -41.615889617434 Eh       
E(C)               :       -0.902755141615 Eh       
E(XC)              :      -42.518644759049 Eh       
DFET-embed. en.    :        0.000000000000 Eh       

---------------
SCF CONVERGENCE
---------------

  Last Energy change         ...   -5.1105e-07  Tolerance :   1.0000e-06
  Last MAX-Density change    ...    3.3841e-03  Tolerance :   1.0000e-05
  Last RMS-Density change    ...    2.6760e-05  Tolerance :   1.0000e-06
  Last DIIS Error            ...    7.0732e-05  Tolerance :   1.0000e-06

             **** THE GBW FILE WAS UPDATED (07_TiH.gbw) ****
             **** DENSITY FILE WAS UPDATED (07_TiH.scfp) ****
             **** ENERGY FILE WAS UPDATED (07_TiH.en.tmp) ****
----------------------
UHF SPIN CONTAMINATION
----------------------

Warning: in a DFT calculation there is little theoretical justification to 
         calculate <S**2> as in Hartree-Fock theory. We will do it anyways
         but you should keep in mind that the values have only limited relevance

Expectation value of <S**2>     :     3.779968
Ideal value S*(S+1) for S=1.5   :     3.750000
Deviation                       :     0.029968

             **** THE GBW FILE WAS UPDATED (07_TiH.gbw) ****
             **** DENSITY FILE WAS UPDATED (07_TiH.scfp) ****
----------------
ORBITAL ENERGIES
----------------
                 SPIN UP ORBITALS
  NO   OCC          E(Eh)            E(eV) 
   0   1.0000    -178.498389     -4857.1881 
   1   1.0000     -19.705893      -536.2246 
   2   1.0000     -16.423149      -446.8966 
   3   1.0000     -16.415575      -446.6905 
   4   1.0000     -16.412921      -446.6183 
   5   1.0000      -2.267176       -61.6930 
   6   1.0000      -1.396315       -37.9957 
   7   1.0000      -1.395653       -37.9776 
   8   1.0000      -1.395509       -37.9737 
   9   1.0000      -0.232873        -6.3368 
  10   1.0000      -0.152318        -4.1448 
  11   1.0000      -0.149317        -4.0631 
  12   1.0000      -0.135427        -3.6851 
  13   0.0000      -0.093930        -2.5560 
  14   0.0000      -0.084560        -2.3010 
  15   0.0000      -0.062312        -1.6956 
  16   0.0000      -0.047402        -1.2899 
  17   0.0000      -0.045591        -1.2406 
  18   0.0000       0.014799         0.4027 
  19   0.0000       0.023262         0.6330 
  20   0.0000       0.030539         0.8310 
  21   0.0000       0.030661         0.8343 
  22   0.0000       0.040782         1.1097 
  23   0.0000       0.046028         1.2525 
  24   0.0000       0.046425         1.2633 
  25   0.0000       0.046523         1.2659 
  26   0.0000       0.046838         1.2745 
  27   0.0000       0.089368         2.4318 
  28   0.0000       0.096354         2.6219 
  29   0.0000       0.108628         2.9559 
  30   0.0000       0.133286         3.6269 
  31   0.0000       0.133620         3.6360 
  32   0.0000       0.138632         3.7724 
  33   0.0000       0.142510         3.8779 
  34   0.0000       0.142772         3.8850 
  35   0.0000       0.145503         3.9593 
  36   0.0000       0.168965         4.5978 
  37   0.0000       0.229713         6.2508 
  38   0.0000       0.243964         6.6386 
  39   0.0000       0.247914         6.7461 
  40   0.0000       0.253676         6.9029 
  41   0.0000       0.254934         6.9371 
  42   0.0000       0.255066         6.9407 
  43   0.0000       0.257740         7.0135 
  44   0.0000       0.331023         9.0076 
  45   0.0000       0.361232         9.8296 
  46   0.0000       0.361842         9.8462 
  47   0.0000       0.369453        10.0533 
  48   0.0000       0.405851        11.0438 
  49   0.0000       0.516733        14.0610 
  50   0.0000       0.529927        14.4201 
  51   0.0000       0.531847        14.4723 
  52   0.0000       0.540281        14.7018 
  53   0.0000       0.570936        15.5360 
  54   0.0000       0.585767        15.9395 
  55   0.0000       0.591129        16.0854 
  56   0.0000       0.652785        17.7632 
  57   0.0000       0.822873        22.3915 
  58   0.0000       0.827366        22.5138 
  59   0.0000       0.842545        22.9268 
  60   0.0000       0.848287        23.0831 
  61   0.0000       0.854421        23.2500 
  62   0.0000       0.909836        24.7579 
  63   0.0000       0.911500        24.8032 
  64   0.0000       0.915147        24.9024 
  65   0.0000       0.918779        25.0012 
  66   0.0000       0.920714        25.0539 
  67   0.0000       0.924893        25.1676 
  68   0.0000       0.932913        25.3858 
  69   0.0000       0.935182        25.4476 
  70   0.0000       0.938971        25.5507 
  71   0.0000       0.947478        25.7822 
  72   0.0000       0.950385        25.8613 
  73   0.0000       1.101689        29.9785 
  74   0.0000       1.170309        31.8457 
  75   0.0000       1.173580        31.9347 
  76   0.0000       1.191514        32.4227 
  77   0.0000       1.194058        32.4920 
  78   0.0000       1.385431        37.6995 
  79   0.0000       1.681493        45.7557 
  80   0.0000       1.685954        45.8771 
  81   0.0000       1.876150        51.0526 
  82   0.0000       1.904260        51.8176 
  83   0.0000       1.907114        51.8952 
  84   0.0000       1.912968        52.0545 
  85   0.0000       2.094354        56.9903 
  86   0.0000       2.133428        58.0535 
  87   0.0000       2.135220        58.1023 
  88   0.0000       2.161119        58.8070 
  89   0.0000       2.184496        59.4432 
  90   0.0000       2.418740        65.8173 
  91   0.0000       3.104498        84.4777 
  92   0.0000       3.202911        87.1557 
  93   0.0000       3.208448        87.3063 
  94   0.0000       3.274478        89.1031 
  95   0.0000       3.277059        89.1733 
  96   0.0000       3.279374        89.2363 
  97   0.0000       3.282874        89.3315 
  98   0.0000       3.285147        89.3934 
  99   0.0000       3.288751        89.4915 
 100   0.0000       3.331064        90.6429 
 101   0.0000       3.440212        93.6129 
 102   0.0000       3.442222        93.6676 
 103   0.0000       3.444286        93.7238 
 104   0.0000       3.483305        94.7856 
 105   0.0000       3.574520        97.2676 
 106   0.0000       3.585898        97.5772 
 107   0.0000       3.768710       102.5518 
 108   0.0000       3.875098       105.4468 
 109   0.0000       3.875469       105.4569 
 110   0.0000       4.139414       112.6392 
 111   0.0000       4.140059       112.6567 
 112   0.0000       4.345498       118.2470 
 113   0.0000       4.349978       118.3689 
 114   0.0000       4.586805       124.8133 
 115   0.0000       5.135127       139.7339 

                 SPIN DOWN ORBITALS
  NO   OCC          E(Eh)            E(eV) 
   0   1.0000    -178.498595     -4857.1937 
   1   1.0000     -19.682377      -535.5847 
   2   1.0000     -16.402411      -446.3323 
   3   1.0000     -16.396787      -446.1792 
   4   1.0000     -16.388936      -445.9656 
   5   1.0000      -2.211576       -60.1800 
   6   1.0000      -1.340524       -36.4775 
   7   1.0000      -1.325932       -36.0804 
   8   1.0000      -1.311466       -35.6868 
   9   1.0000      -0.224288        -6.1032 
  10   0.0000      -0.045504        -1.2382 
  11   0.0000      -0.039455        -1.0736 
  12   0.0000      -0.024265        -0.6603 
  13   0.0000      -0.016093        -0.4379 
  14   0.0000      -0.004679        -0.1273 
  15   0.0000       0.003905         0.1063 
  16   0.0000       0.017214         0.4684 
  17   0.0000       0.018287         0.4976 
  18   0.0000       0.021911         0.5962 
  19   0.0000       0.042942         1.1685 
  20   0.0000       0.044125         1.2007 
  21   0.0000       0.063467         1.7270 
  22   0.0000       0.092657         2.5213 
  23   0.0000       0.106592         2.9005 
  24   0.0000       0.112494         3.0611 
  25   0.0000       0.129098         3.5129 
  26   0.0000       0.131334         3.5738 
  27   0.0000       0.132450         3.6041 
  28   0.0000       0.152002         4.1362 
  29   0.0000       0.183786         5.0011 
  30   0.0000       0.201238         5.4760 
  31   0.0000       0.205393         5.5890 
  32   0.0000       0.208667         5.6781 
  33   0.0000       0.212911         5.7936 
  34   0.0000       0.254636         6.9290 
  35   0.0000       0.259751         7.0682 
  36   0.0000       0.260690         7.0937 
  37   0.0000       0.296043         8.0557 
  38   0.0000       0.297784         8.1031 
  39   0.0000       0.304413         8.2835 
  40   0.0000       0.306709         8.3460 
  41   0.0000       0.336925         9.1682 
  42   0.0000       0.339007         9.2249 
  43   0.0000       0.340986         9.2787 
  44   0.0000       0.436243        11.8708 
  45   0.0000       0.458471        12.4756 
  46   0.0000       0.463914        12.6237 
  47   0.0000       0.465213        12.6591 
  48   0.0000       0.493963        13.4414 
  49   0.0000       0.620406        16.8821 
  50   0.0000       0.625625        17.0241 
  51   0.0000       0.627071        17.0635 
  52   0.0000       0.628846        17.1118 
  53   0.0000       0.632265        17.2048 
  54   0.0000       0.639099        17.3908 
  55   0.0000       0.667764        18.1708 
  56   0.0000       0.722873        19.6704 
  57   0.0000       0.837732        22.7959 
  58   0.0000       0.841192        22.8900 
  59   0.0000       0.895660        24.3721 
  60   0.0000       0.901581        24.5333 
  61   0.0000       0.923272        25.1235 
  62   0.0000       0.948698        25.8154 
  63   0.0000       0.949946        25.8493 
  64   0.0000       0.954456        25.9721 
  65   0.0000       0.955634        26.0041 
  66   0.0000       0.985997        26.8304 
  67   0.0000       0.988213        26.8907 
  68   0.0000       0.989808        26.9340 
  69   0.0000       0.990082        26.9415 
  70   0.0000       0.996520        27.1167 
  71   0.0000       1.031308        28.0633 
  72   0.0000       1.032211        28.0879 
  73   0.0000       1.113343        30.2956 
  74   0.0000       1.166544        31.7433 
  75   0.0000       1.169665        31.8282 
  76   0.0000       1.204644        32.7800 
  77   0.0000       1.205365        32.7996 
  78   0.0000       1.420903        38.6647 
  79   0.0000       1.697376        46.1880 
  80   0.0000       1.702928        46.3390 
  81   0.0000       1.920806        52.2678 
  82   0.0000       1.971733        53.6536 
  83   0.0000       1.983024        53.9608 
  84   0.0000       1.998019        54.3689 
  85   0.0000       2.221180        60.4414 
  86   0.0000       2.237364        60.8818 
  87   0.0000       2.238168        60.9036 
  88   0.0000       2.261846        61.5479 
  89   0.0000       2.263899        61.6038 
  90   0.0000       2.484044        67.5943 
  91   0.0000       3.113802        84.7308 
  92   0.0000       3.294588        89.6503 
  93   0.0000       3.303604        89.8956 
  94   0.0000       3.400998        92.5459 
  95   0.0000       3.412227        92.8514 
  96   0.0000       3.413841        92.8953 
  97   0.0000       3.430466        93.3477 
  98   0.0000       3.431910        93.3870 
  99   0.0000       3.445423        93.7547 
 100   0.0000       3.447925        93.8228 
 101   0.0000       3.563489        96.9675 
 102   0.0000       3.567088        97.0654 
 103   0.0000       3.571346        97.1813 
 104   0.0000       3.595383        97.8353 
 105   0.0000       3.663109        99.6783 
 106   0.0000       3.696047       100.5746 
 107   0.0000       3.827937       104.1635 
 108   0.0000       3.830501       104.2332 
 109   0.0000       3.871307       105.3436 
 110   0.0000       4.131056       112.4118 
 111   0.0000       4.134776       112.5130 
 112   0.0000       4.319805       117.5479 
 113   0.0000       4.322131       117.6112 
 114   0.0000       4.579392       124.6116 
 115   0.0000       5.134648       139.7209 

                    ********************************
                    * MULLIKEN POPULATION ANALYSIS *
                    ********************************

--------------------------------------------
MULLIKEN ATOMIC CHARGES AND SPIN POPULATIONS
--------------------------------------------
   0 Ti:    0.246847    3.117270
   1 H :   -0.246847   -0.117270
Sum of atomic charges         :   -0.0000000
Sum of atomic spin populations:    3.0000000

-----------------------------------------------------
MULLIKEN REDUCED ORBITAL CHARGES AND SPIN POPULATIONS
-----------------------------------------------------
CHARGE
  0 Tis       :     6.914718  s :     6.914718
      pz      :     4.144225  p :    12.157399
      px      :     4.014055
      py      :     3.999118
      dz2     :     0.638989  d :     2.670404
      dxz     :     0.963376
      dyz     :     0.015182
      dx2y2   :     0.097136
      dxy     :     0.955720
      f0      :     0.008200  f :     0.009371
      f+1     :     0.000224
      f-1     :     0.000097
      f+2     :     0.000139
      f-2     :     0.000490
      f+3     :     0.000127
      f-3     :     0.000094
      g0      :     0.000920  g :     0.001260
      g+1     :    -0.000003
      g-1     :     0.000000
      g+2     :     0.000136
      g-2     :     0.000030
      g+3     :     0.000001
      g-3     :     0.000000
      g+4     :     0.000133
      g-4     :     0.000043
  1 H s       :     1.234658  s :     1.234658
      pz      :     0.003094  p :     0.010036
      px      :     0.006356
      py      :     0.000587
      dz2     :     0.001031  d :     0.002153
      dxz     :     0.000425
      dyz     :     0.000360
      dx2y2   :     0.000050
      dxy     :     0.000286

SPIN
  0 Tis       :     0.652378  s :     0.652378
      pz      :     0.033790  p :     0.048308
      px      :     0.015106
      py      :    -0.000588
      dz2     :     0.386000  d :     2.417112
      dxz     :     0.963303
      dyz     :     0.015109
      dx2y2   :     0.096991
      dxy     :     0.955710
      f0      :    -0.001259  f :    -0.000303
      f+1     :     0.000212
      f-1     :     0.000081
      f+2     :     0.000049
      f-2     :     0.000484
      f+3     :     0.000112
      f-3     :     0.000018
      g0      :    -0.000538  g :    -0.000226
      g+1     :    -0.000003
      g-1     :    -0.000001
      g+2     :     0.000120
      g-2     :     0.000029
      g+3     :     0.000001
      g-3     :     0.000000
      g+4     :     0.000125
      g-4     :     0.000041
  1 H s       :    -0.126224  s :    -0.126224
      pz      :     0.001957  p :     0.008283
      px      :     0.005789
      py      :     0.000537
      dz2     :     0.000015  d :     0.000671
      dxz     :     0.000033
      dyz     :     0.000290
      dx2y2   :     0.000048
      dxy     :     0.000286


                     *******************************
                     * LOEWDIN POPULATION ANALYSIS *
                     *******************************

-------------------------------------------
LOEWDIN ATOMIC CHARGES AND SPIN POPULATIONS
-------------------------------------------
   0 Ti:    0.672862    2.893658
   1 H :   -0.672862    0.106342

----------------------------------------------------
LOEWDIN REDUCED ORBITAL CHARGES AND SPIN POPULATIONS
----------------------------------------------------
CHARGE
  0 Tis       :     6.635765  s :     6.635765
      pz      :     4.117187  p :    12.027372
      px      :     3.968381
      py      :     3.941804
      dz2     :     0.666494  d :     2.616990
      dxz     :     0.890457
      dyz     :     0.017218
      dx2y2   :     0.096194
      dxy     :     0.946627
      f0      :     0.029794  f :     0.036089
      f+1     :     0.003643
      f-1     :     0.001068
      f+2     :     0.000175
      f-2     :     0.001188
      f+3     :     0.000127
      f-3     :     0.000094
      g0      :     0.009872  g :     0.010922
      g+1     :     0.000317
      g-1     :     0.000053
      g+2     :     0.000193
      g-2     :     0.000310
      g+3     :     0.000001
      g-3     :     0.000000
      g+4     :     0.000133
      g-4     :     0.000043
  1 H s       :     1.132834  s :     1.132834
      pz      :     0.219752  p :     0.302508
      px      :     0.061010
      py      :     0.021746
      dz2     :     0.134137  d :     0.237520
      dxz     :     0.060627
      dyz     :     0.033455
      dx2y2   :     0.000900
      dxy     :     0.008401

SPIN
  0 Tis       :     0.546517  s :     0.546517
      pz      :     0.016417  p :     0.042321
      px      :     0.026484
      py      :    -0.000580
      dz2     :     0.360822  d :     2.304768
      dxz     :     0.887250
      dyz     :     0.014030
      dx2y2   :     0.096049
      dxy     :     0.946617
      f0      :    -0.003789  f :     0.000847
      f+1     :     0.002830
      f-1     :     0.000409
      f+2     :     0.000086
      f-2     :     0.001182
      f+3     :     0.000112
      f-3     :     0.000018
      g0      :    -0.001714  g :    -0.000795
      g+1     :     0.000264
      g-1     :     0.000001
      g+2     :     0.000178
      g-2     :     0.000309
      g+3     :     0.000001
      g-3     :     0.000000
      g+4     :     0.000125
      g-4     :     0.000041
  1 H s       :    -0.003475  s :    -0.003475
      pz      :     0.031147  p :     0.071948
      px      :     0.039915
      py      :     0.000887
      dz2     :     0.000194  d :     0.037868
      dxz     :     0.027697
      dyz     :     0.000683
      dx2y2   :     0.000894
      dxy     :     0.008400


                      *****************************
                      * MAYER POPULATION ANALYSIS *
                      *****************************

  NA   - Mulliken gross atomic population
  ZA   - Total nuclear charge
  QA   - Mulliken gross atomic charge
  VA   - Mayer's total valence
  BVA  - Mayer's bonded valence
  FA   - Mayer's free valence

  ATOM       NA         ZA         QA         VA         BVA        FA
  0 Ti    21.7532    22.0000     0.2468     3.9593     0.9576     3.0016
  1 H      1.2468     1.0000    -0.2468     0.9787     0.9576     0.0211

  Mayer bond orders larger than 0.100000
B(  0-Ti,  1-H ) :   0.9576 

-------
TIMINGS
-------

Total SCF time: 0 days 0 hours 0 min 10 sec 

Total time                  ....      10.178 sec
Sum of individual times     ....       9.930 sec  ( 97.6%)

Fock matrix formation       ....       9.311 sec  ( 91.5%)
  Split-RI-J                ....       7.307 sec  ( 78.5% of F)
  XC integration            ....       1.815 sec  ( 19.5% of F)
    Basis function eval.    ....       0.254 sec  ( 14.0% of XC)
    Density eval.           ....       0.247 sec  ( 13.6% of XC)
    XC-Functional eval.     ....       0.056 sec  (  3.1% of XC)
    XC-Potential eval.      ....       0.748 sec  ( 41.2% of XC)
Diagonalization             ....       0.225 sec  (  2.2%)
Density matrix formation    ....       0.033 sec  (  0.3%)
Population analysis         ....       0.006 sec  (  0.1%)
Initial guess               ....       0.122 sec  (  1.2%)
Orbital Transformation      ....       0.000 sec  (  0.0%)
Orbital Orthonormalization  ....       0.000 sec  (  0.0%)
DIIS solution               ....       0.095 sec  (  0.9%)
Grid generation             ....       0.138 sec  (  1.4%)


-------------------------------------------------------------------------------
                          DFT DISPERSION CORRECTION                            
                                                                               
                              DFTD3 V3.1  Rev 1                                
                          USING Becke-Johnson damping                          
-------------------------------------------------------------------------------
The SCAN functional is recognized
Active option DFTDOPT                   ...         4   

molecular C6(AA) [au] = 747.882380 


            DFT-D V3
 parameters
 s6 scaling factor         :     1.0000 
 a1 scaling factor         :     0.5380 
 s8 scaling factor         :     0.0000 
 a2 scaling factor         :     5.4200 
 ad hoc parameters k1-k3   :    16.0000     1.3333    -4.0000 

 Edisp/kcal,au: -0.057570362685  -0.000091744203 
 E6   /kcal   :  -0.057570363 
 E8   /kcal   :  -0.000000000 
 % E8         :   0.000000000 

-------------------------   ----------------
Dispersion correction           -0.000091744
-------------------------   ----------------


-------------------------   --------------------
FINAL SINGLE POINT ENERGY      -850.001392556002
-------------------------   --------------------


                            ***************************************
                            *     ORCA property calculations      *
                            ***************************************

                                    ---------------------
                                    Active property flags
                                    ---------------------
   (+) Dipole Moment


------------------------------------------------------------------------------
                       ORCA ELECTRIC PROPERTIES CALCULATION
------------------------------------------------------------------------------

Dipole Moment Calculation                       ... on
Quadrupole Moment Calculation                   ... off
Polarizability Calculation                      ... off
GBWName                                         ... 07_TiH.gbw
Electron density file                           ... 07_TiH.scfp
The origin for moment calculation is the CENTER OF MASS  = ( 0.000000,  0.000000  0.289192)

-------------
DIPOLE MOMENT
-------------
                                X             Y             Z
Electronic contribution:      0.00000      -0.00000      -2.87850
Nuclear contribution   :      0.00000       0.00000       1.75604
                        -----------------------------------------
Total Dipole Moment    :      0.00000      -0.00000      -1.12246
                        -----------------------------------------
Magnitude (a.u.)       :      1.12246
Magnitude (Debye)      :      2.85306



--------------------
Rotational spectrum 
--------------------
 
Rotational constants in cm-1:     0.000000     5.470494     5.470494 
Rotational constants in MHz :     0.000000 164001.275229 164001.275229 

 Dipole components along the rotational axes: 
x,y,z [a.u.] :    -1.122457    -0.000000     0.000002 
x,y,z [Debye]:    -2.853058    -0.000000     0.000005 

 

Timings for individual modules:

Sum of individual times         ...       13.072 sec (=   0.218 min)
GTO integral calculation        ...        2.565 sec (=   0.043 min)  19.6 %
SCF iterations                  ...       10.507 sec (=   0.175 min)  80.4 %
                             ****ORCA TERMINATED NORMALLY****
TOTAL RUN TIME: 0 days 0 hours 0 minutes 13 seconds 703 msec
