
                                 *****************
                                 * O   R   C   A *
                                 *****************

           --- An Ab Initio, DFT and Semiempirical electronic structure package ---

                  #######################################################
                  #                        -***-                        #
                  #          Department of theory and spectroscopy      #
                  #               Directorship: Frank Neese             #
                  #        Max Planck Institute fuer Kohlenforschung    #
                  #                Kaiser Wilhelm Platz 1               #
                  #                 D-45470 Muelheim/Ruhr               #
                  #                      Germany                        #
                  #                                                     #
                  #                  All rights reserved                #
                  #                        -***-                        #
                  #######################################################


                         Program Version 4.2.0 -  RELEASE  -


 With contributions from (in alphabetic order):
   Daniel Aravena         : Magnetic Suceptibility
   Michael Atanasov       : Ab Initio Ligand Field Theory (pilot matlab implementation)
   Alexander A. Auer      : GIAO ZORA, VPT2
   Ute Becker             : Parallelization
   Giovanni Bistoni       : ED, misc. LED, open-shell LED, HFLED
   Martin Brehm           : Molecular dynamics
   Dmytro Bykov           : SCF Hessian
   Vijay G. Chilkuri      : MRCI spin determinant printing, contributions to CSF-ICE
   Dipayan Datta          : RHF DLPNO-CCSD density
   Achintya Kumar Dutta   : EOM-CC, STEOM-CC
   Dmitry Ganyushin       : Spin-Orbit,Spin-Spin,Magnetic field MRCI
   Miquel Garcia          : C-PCM Hessian, Gaussian charge scheme
   Yang Guo               : DLPNO-NEVPT2, CIM, IAO-localization
   Andreas Hansen         : Spin unrestricted coupled pair/coupled cluster methods
   Benjamin Helmich-Paris : CASSCF linear response (MC-RPA)
   Lee Huntington         : MR-EOM, pCC
   Robert Izsak           : Overlap fitted RIJCOSX, COSX-SCS-MP3, EOM
   Christian Kollmar      : KDIIS, OOCD, Brueckner-CCSD(T), CCSD density
   Simone Kossmann        : Meta GGA functionals, TD-DFT gradient, OOMP2, MP2 Hessian
   Martin Krupicka        : AUTO-CI
   Lucas Lang             : DCDCAS
   Dagmar Lenk            : GEPOL surface, SMD
   Dimitrios Liakos       : Extrapolation schemes; Compound Job, initial MDCI parallelization
   Dimitrios Manganas     : Further ROCIS development; embedding schemes
   Dimitrios Pantazis     : SARC Basis sets
   Taras Petrenko         : DFT Hessian,TD-DFT gradient, ASA, ECA, R-Raman, ABS, FL, XAS/XES, NRVS
   Peter Pinski           : DLPNO-MP2, DLPNO-MP2 Gradient
   Christoph Reimann      : Effective Core Potentials
   Marius Retegan         : Local ZFS, SOC
   Christoph Riplinger    : Optimizer, TS searches, QM/MM, DLPNO-CCSD(T), (RO)-DLPNO pert. Triples
   Tobias Risthaus        : Range-separated hybrids, TD-DFT gradient, RPA, STAB
   Michael Roemelt        : Original ROCIS implementation
   Masaaki Saitow         : Open-shell DLPNO-CCSD energy and density
   Barbara Sandhoefer     : DKH picture change effects
   Avijit Sen             : IP-ROCIS
   Kantharuban Sivalingam : CASSCF convergence, NEVPT2, FIC-MRCI
   Bernardo de Souza      : ESD, SOC TD-DFT
   Georgi Stoychev        : AutoAux, RI-MP2 NMR
   Willem Van den Heuvel  : Paramagnetic NMR
   Boris Wezisla          : Elementary symmetry handling
   Frank Wennmohs         : Technical directorship


 We gratefully acknowledge several colleagues who have allowed us to
 interface, adapt or use parts of their codes:
   Stefan Grimme, W. Hujo, H. Kruse,             : VdW corrections, initial TS optimization,
                  C. Bannwarth                     DFT functionals, gCP, sTDA/sTD-DF
   Ed Valeev, F. Pavosevic, A. Kumar             : LibInt (2-el integral package), F12 methods
   Garnet Chan, S. Sharma, J. Yang, R. Olivares  : DMRG
   Ulf Ekstrom                                   : XCFun DFT Library
   Mihaly Kallay                                 : mrcc  (arbitrary order and MRCC methods)
   Andreas Klamt, Michael Diedenhofen            : otool_cosmo (COSMO solvation model)
   Jiri Pittner, Ondrej Demel                    : Mk-CCSD
   Frank Weinhold                                : gennbo (NPA and NBO analysis)
   Christopher J. Cramer and Donald G. Truhlar   : smd solvation model
   Lars Goerigk                                  : TD-DFT with DH, B97 family of functionals
   V. Asgeirsson, H. Jonsson                     : NEB implementation
   FAccTs GmbH                                   : IRC, NEB, NEB-TS, Multilevel, MM, QM/MM, CI optimization
   S Lehtola, MJT Oliveira, MAL Marques          : LibXC Library


 Your calculation uses the libint2 library for the computation of 2-el integrals
 For citations please refer to: http://libint.valeyev.net

 Your ORCA version has been built with support for libXC version: 4.2.3
 For citations please refer to: https://tddft.org/programs/libxc/

 This ORCA versions uses:
   CBLAS   interface :  Fast vector & matrix operations
   LAPACKE interface :  Fast linear algebra routines
   SCALAPACK package :  Parallel linear algebra routines


Your calculation utilizes the atom-pairwise dispersion correction
with the Becke-Johnson damping scheme (D3BJ)
Cite in your paper:
S.Grimme, S.Ehrlich, L.Goerigk, J Comput Chem, (2011), 32, 1456–1465 
S.Grimme, J.Antony, S.Ehrlich and H.Krieg, J.Chem.Phys., 132, (2010), 154104 
   

----- Orbital basis set information -----
Your calculation utilizes the basis: aug-cc-pVTZ 
    H, B-Ne : Obtained from the ccRepo (grant-hill.group.shef.ac.uk/ccrepo) Feb. 2017
              R. A. Kendall, T. H. Dunning, Jr., R. J. Harrison, J. Chem. Phys. 96, 6796 (1992)
         He : Obtained from the ccRepo (grant-hill.group.shef.ac.uk/ccrepo) Feb. 2017
              D. E. Woon, T. H. Dunning, Jr., J. Chem. Phys. 100, 2975 (1994)
  Li-Be, Na : Obtained from the ccRepo (grant-hill.group.shef.ac.uk/ccrepo) Feb. 2017
              B. P. Prascher, D. E. Woon, K. A. Peterson, T. H. Dunning, Jr., A. K. Wilson, Theor. Chem. Acc. 128, 69 (2011)
         Mg : Obtained from the Peterson Research Group Website (tyr0.chem.wsu.edu/~kipeters) Feb. 2017
              B. P. Prascher, D. E. Woon, K. A. Peterson, T. H. Dunning, Jr., A. K. Wilson, Theor. Chem. Acc. 128, 69 (2011)
      Al-Ar : Obtained from the ccRepo (grant-hill.group.shef.ac.uk/ccrepo) Feb. 2017
              D. E. Woon, T. H. Dunning, Jr., J. Chem. Phys. 98, 1358 (1993)
      Sc-Zn : Obtained from the ccRepo (grant-hill.group.shef.ac.uk/ccrepo) Feb. 2017
              N. B. Balabanov, K. A. Peterson, J. Chem. Phys. 123, 064107 (2005)
              N. B. Balabanov, K. A. Peterson, J. Chem. Phys. 125, 074110 (2006)
      Ga-Kr : Obtained from the ccRepo (grant-hill.group.shef.ac.uk/ccrepo) Feb. 2017
              A. K. Wilson, D. E. Woon, K. A. Peterson, T. H. Dunning, Jr., J. Chem. Phys. 110, 7667 (1999)
     Ag, Au : Obtained from the Peterson Research Group Website (tyr0.chem.wsu.edu/~kipeters) Feb. 2017
              K. A. Peterson, C. Puzzarini, Theor. Chem. Acc. 114, 283 (2005)

----- AuxJ basis set information -----
Your calculation utilizes the auxiliary basis: def2/J
   F. Weigend, Phys. Chem. Chem. Phys. 8, 1057 (2006).

================================================================================
                                        WARNINGS
                       Please study these warnings very carefully!
================================================================================


WARNING: your system is open-shell and RHF/RKS was chosen
  ===> : WILL SWITCH to UHF/UKS


WARNING: The SCAN functional is very grid-sensitive!
         Use at least GRID5 and a higher intacc

INFO   : the flag for use of LIBINT has been found!

================================================================================
                                       INPUT FILE
================================================================================
NAME = 09_TiCl.in
|  1> #
|  2> # 09_TiCl scanfunc/aug-cc-pvtz
|  3> #
|  4> ! scanfunc d3bj aug-cc-pvtz def2/j grid4 nofinalgrid
|  5> 
|  6> *xyz 0 4
|  7>   Ti  0.00000000000000      0.00000000000000     -0.11680209456005
|  8>   Cl  0.00000000000000      0.00000000000000      2.11680209456005
|  9> *
| 10> 
| 11> %pal
| 12> nprocs 24
| 13> end
| 14> 
| 15> 
| 16>                          ****END OF INPUT****
================================================================================

                       ****************************
                       * Single Point Calculation *
                       ****************************

---------------------------------
CARTESIAN COORDINATES (ANGSTROEM)
---------------------------------
  Ti     0.000000    0.000000   -0.116802
  Cl     0.000000    0.000000    2.116802

----------------------------
CARTESIAN COORDINATES (A.U.)
----------------------------
  NO LB      ZA    FRAG     MASS         X           Y           Z
   0 Ti   22.0000    0    47.900    0.000000    0.000000   -0.220724
   1 Cl   17.0000    0    35.453    0.000000    0.000000    4.000176

--------------------------------
INTERNAL COORDINATES (ANGSTROEM)
--------------------------------
 Ti     0   0   0     0.000000000000     0.00000000     0.00000000
 Cl     1   0   0     2.233604189120     0.00000000     0.00000000

---------------------------
INTERNAL COORDINATES (A.U.)
---------------------------
 Ti     0   0   0     0.000000000000     0.00000000     0.00000000
 Cl     1   0   0     4.220900209016     0.00000000     0.00000000

---------------------
BASIS SET INFORMATION
---------------------
There are 2 groups of distinct atoms

 Group   1 Type Ti  : 116s77p23d3f2g contracted to 8s7p5d3f2g pattern {19191919191911/151515151511/77711/111/11}
 Group   2 Type Cl  : 42s17p3d2f contracted to 6s5p3d2f pattern {131313111/77111/111/11}

Atom   0Ti   basis set group =>   1
Atom   1Cl   basis set group =>   2
---------------------------------
AUXILIARY/J BASIS SET INFORMATION
---------------------------------
There are 2 groups of distinct atoms

 Group   1 Type Ti  : 19s5p5d3f3g contracted to 8s5p5d2f3g pattern {121111111/11111/11111/21/111}
 Group   2 Type Cl  : 14s5p5d2f1g contracted to 8s4p3d1f1g pattern {71111111/2111/311/2/1}

Atom   0Ti   basis set group =>   1
Atom   1Cl   basis set group =>   2


           ************************************************************
           *        Program running with 24 parallel MPI-processes    *
           *              working on a common directory               *
           ************************************************************
------------------------------------------------------------------------------
                           ORCA GTO INTEGRAL CALCULATION
                           -- RI-GTO INTEGRALS CHOSEN --
------------------------------------------------------------------------------

                         BASIS SET STATISTICS AND STARTUP INFO

Gaussian basis set:
 # of primitive gaussian shells          ...  285
 # of primitive gaussian functions       ...  623
 # of contracted shells                  ...   41
 # of contracted basis functions         ...  143
 Highest angular momentum                ...    4
 Maximum contraction depth               ...   19
Auxiliary gaussian basis set:
 # of primitive gaussian shells          ...   62
 # of primitive gaussian functions       ...  184
 # of contracted shells                  ...   40
 # of contracted aux-basis functions     ...  140
 Highest angular momentum                ...    4
 Maximum contraction depth               ...   12
Ratio of auxiliary to basis functions    ...  0.98
Integral package used                  ... LIBINT
 One Electron integrals                  ... done
 Ordering auxiliary basis shells         ... done
 Integral threshhold             Thresh  ...  1.000e-10
 Primitive cut-off               TCut    ...  1.000e-11
 Pre-screening matrix                    ... done
 Shell pair data                         ... 
 Ordering of the shell pairs             ... done (   0.000 sec) 861 of 861 pairs
 Determination of significant pairs      ... done (   0.000 sec)
 Creation of shell pair data             ... done (   0.001 sec)
 Storage of shell pair data              ... done (   0.012 sec)
 Shell pair data done in (   0.013 sec)
 Computing two index integrals           ... done
 Cholesky decomposition of the V-matrix  ... done


Timings:
 Total evaluation time                   ...   2.659 sec (  0.044 min)
 One electron matrix time                ...   0.057 sec (  0.001 min) =  2.1%
 Schwartz matrix evaluation time         ...   2.557 sec (  0.043 min) = 96.2%
 Two index repulsion integral time       ...   0.001 sec (  0.000 min) =  0.0%
 Cholesky decomposition of V             ...   0.001 sec (  0.000 min) =  0.0%
 Three index repulsion integral time     ...   0.000 sec (  0.000 min) =  0.0%



           ************************************************************
           *        Program running with 24 parallel MPI-processes    *
           *              working on a common directory               *
           ************************************************************
-------------------------------------------------------------------------------
                                 ORCA SCF
-------------------------------------------------------------------------------

------------
SCF SETTINGS
------------
Hamiltonian:
 Density Functional     Method          .... DFT(GTOs)
 Exchange Functional    Exchange        .... SCAN
 Correlation Functional Correlation     .... SCAN
 Gradients option       PostSCFGGA      .... off
   Density functional embedding theory  .... OFF
   NL short-range parameter             ....  6.400000
 RI-approximation to the Coulomb term is turned on
   Number of auxiliary basis functions  .... 140


General Settings:
 Integral files         IntName         .... 09_TiCl
 Hartree-Fock type      HFTyp           .... UHF
 Total Charge           Charge          ....    0
 Multiplicity           Mult            ....    4
 Number of Electrons    NEL             ....   39
 Basis Dimension        Dim             ....  143
 Nuclear Repulsion      ENuc            ....     88.6066908668 Eh

Convergence Acceleration:
 DIIS                   CNVDIIS         .... on
   Start iteration      DIISMaxIt       ....    12
   Startup error        DIISStart       ....  0.200000
   # of expansion vecs  DIISMaxEq       ....     5
   Bias factor          DIISBfac        ....   1.050
   Max. coefficient     DIISMaxC        ....  10.000
 Newton-Raphson         CNVNR           .... off
 SOSCF                  CNVSOSCF        .... off
 Level Shifting         CNVShift        .... on
   Level shift para.    LevelShift      ....    0.2500
   Turn off err/grad.   ShiftErr        ....    0.0010
 Zerner damping         CNVZerner       .... off
 Static damping         CNVDamp         .... on
   Fraction old density DampFac         ....    0.7000
   Max. Damping (<1)    DampMax         ....    0.9800
   Min. Damping (>=0)   DampMin         ....    0.0000
   Turn off err/grad.   DampErr         ....    0.1000
 Fernandez-Rico         CNVRico         .... off

SCF Procedure:
 Maximum # iterations   MaxIter         ....   125
 SCF integral mode      SCFMode         .... Direct
   Integral package                     .... LIBINT
 Reset frequency        DirectResetFreq ....    20
 Integral Threshold     Thresh          ....  1.000e-10 Eh
 Primitive CutOff       TCut            ....  1.000e-11 Eh

Convergence Tolerance:
 Convergence Check Mode ConvCheckMode   .... Total+1el-Energy
 Convergence forced     ConvForced      .... 0
 Energy Change          TolE            ....  1.000e-06 Eh
 1-El. energy change                    ....  1.000e-03 Eh
 DIIS Error             TolErr          ....  1.000e-06


Diagonalization of the overlap matrix:
Smallest eigenvalue                        ... 4.724e-05
Time for diagonalization                   ...    0.006 sec
Threshold for overlap eigenvalues          ... 1.000e-08
Number of eigenvalues below threshold      ... 0
Time for construction of square roots      ...    0.002 sec
Total time needed                          ...    0.009 sec

-------------------
DFT GRID GENERATION
-------------------

General Integration Accuracy     IntAcc      ...  4.670
Radial Grid Type                 RadialGrid  ... Gauss-Chebyshev
Angular Grid (max. acc.)         AngularGrid ... Lebedev-302
Angular grid pruning method      GridPruning ... 3 (G Style)
Weight generation scheme         WeightScheme... Becke
Basis function cutoff            BFCut       ...    1.0000e-10
Integration weight cutoff        WCut        ...    1.0000e-14
Grids for H and He will be reduced by one unit

# of grid points (after initial pruning)     ...  16402 (   0.0 sec)
# of grid points (after weights+screening)   ...  16375 (   0.0 sec)
nearest neighbour list constructed           ...    0.0 sec
Grid point re-assignment to atoms done       ...    0.0 sec
Grid point division into batches done        ...    0.1 sec
Reduced shell lists constructed in    0.1 sec

Total number of grid points                  ...    16375
Total number of batches                      ...      257
Average number of points per batch           ...       63
Average number of grid points per atom       ...     8188
Average number of shells per batch           ...    17.83 (43.50%)
Average number of basis functions per batch  ...    49.50 (34.62%)
Average number of large shells per batch     ...    11.08 (62.15%)
Average number of large basis fcns per batch ...    32.25 (65.15%)
Maximum spatial batch extension              ...  24.49, 24.19, 18.13 au
Average spatial batch extension              ...   0.85,  0.83,  0.66 au

Time for grid setup =    0.157 sec

------------------------------
INITIAL GUESS: MODEL POTENTIAL
------------------------------
Loading Hartree-Fock densities                     ... done
Calculating cut-offs                               ... done
Setting up the integral package                    ... done
Initializing the effective Hamiltonian             ... done
Starting the Coulomb interaction                   ... done (   0.0 sec)
Reading the grid                                   ... done
Mapping shells                                     ... done
Starting the XC term evaluation                    ... done (   0.0 sec)
  promolecular density results
     # of electrons  =     39.000003298
     EX              =    -76.800852784
     EC              =     -0.672304312
     EX+EC           =    -77.473157096
Transforming the Hamiltonian                       ... done (   0.0 sec)
Diagonalizing the Hamiltonian                      ... done (   0.0 sec)
Back transforming the eigenvectors                 ... done (   0.0 sec)
Now organizing SCF variables                       ... done
                      ------------------
                      INITIAL GUESS DONE (   0.3 sec)
                      ------------------
--------------
SCF ITERATIONS
--------------
ITER       Energy         Delta-E        Max-DP      RMS-DP      [F,P]     Damp
               ***  Starting incremental Fock matrix formation  ***
  0  -1309.3541785898   0.000000000000 0.64681096  0.01141909  0.3454337 0.7000
  1  -1309.5160642973  -0.161885707474 0.44382595  0.00819128  0.1169316 0.7000
                               ***Turning on DIIS***
  2  -1309.5674823685  -0.051418071190 1.10048453  0.01747783  0.0498792 0.0000
  3  -1309.6438456144  -0.076363245949 0.12303598  0.00215837  0.0907077 0.0000
  4  -1309.6777952987  -0.033949684254 0.07544342  0.00129263  0.0301998 0.0000
  5  -1309.6857266320  -0.007931333338 0.03152246  0.00057677  0.0128071 0.0000
  6  -1309.6910948121  -0.005368180121 0.03856729  0.00053397  0.0135195 0.0000
  7  -1309.6965841181  -0.005489305977 0.04707747  0.00053362  0.0140843 0.0000
  8  -1309.7022419018  -0.005657783724 0.04698438  0.00047569  0.0142882 0.0000
  9  -1309.7072457207  -0.005003818836 0.04410407  0.00042841  0.0133683 0.0000
 10  -1309.7114239688  -0.004178248174 0.03894565  0.00038215  0.0127281 0.0000
 11  -1309.7146485324  -0.003224563611 0.03409550  0.00034923  0.0172686 0.0000
 12  -1309.7170437495  -0.002395217051 0.02817291  0.00031867  0.0229816 0.0000
 13  -1309.7189046705  -0.001860921060 0.02201800  0.00027534  0.0263453 0.0000
 14  -1309.7206601599  -0.001755489394 0.02036032  0.00034677  0.0249238 0.0000
 15  -1309.7227428468  -0.002082686885 0.03707016  0.00055405  0.0165330 0.0000
 16  -1309.7249265980  -0.002183751174 0.01500726  0.00022506  0.0066089 0.0000
 17  -1309.7258820397  -0.000955441703 0.01231024  0.00016054  0.0060646 0.0000
 18  -1309.7264920379  -0.000609998153 0.01437372  0.00028618  0.0049555 0.0000
 19  -1309.7269943126  -0.000502274712 0.00942266  0.00013694  0.0042766 0.0000
               *** Restarting incremental Fock matrix formation ***
                                   *** Resetting DIIS ***
 20  -1309.7273347342  -0.000340421642 0.00888687  0.00015122  0.0036754 0.0000
 21  -1309.7275438834  -0.000209149204 0.00591008  0.00011625  0.0029161 0.0000
 22  -1309.7276913482  -0.000147464828 0.00598533  0.00010203  0.0025795 0.0000
 23  -1309.7278092935  -0.000117945225 0.00697725  0.00013345  0.0021953 0.0000
 24  -1309.7278991842  -0.000089890734 0.00447454  0.00005597  0.0020211 0.0000
 25  -1309.7279667056  -0.000067521399 0.00430512  0.00007439  0.0016516 0.0000
 26  -1309.7280104619  -0.000043756347 0.00772886  0.00013402  0.0012568 0.0000
 27  -1309.7280446859  -0.000034223942 0.00311225  0.00004554  0.0011760 0.0000
 28  -1309.7280671988  -0.000022512949 0.00233374  0.00002863  0.0013758 0.0000
 29  -1309.7280853575  -0.000018158677 0.00943600  0.00011970  0.0009661 0.0000
 30  -1309.7281175991  -0.000032241566 0.00116708  0.00002179  0.0011054 0.0000
 31  -1309.7281209473  -0.000003348239 0.00137399  0.00001455  0.0004033 0.0000
 32  -1309.7281223661  -0.000001418802 0.00088025  0.00001046  0.0001968 0.0000
 33  -1309.7281227682  -0.000000402061 0.00117922  0.00001229  0.0001299 0.0000
 34  -1309.7281235335  -0.000000765336 0.00174891  0.00001749  0.0001120 0.0000
                 **** Energy Check signals convergence ****

               *****************************************************
               *                     SUCCESS                       *
               *           SCF CONVERGED AFTER  35 CYCLES          *
               *****************************************************


----------------
TOTAL SCF ENERGY
----------------

Total Energy       :        -1309.72812438 Eh          -35639.51414 eV

Components:
Nuclear Repulsion  :           88.60669087 Eh            2411.11064 eV
Electronic Energy  :        -1398.33481525 Eh          -38050.62478 eV
One Electron Energy:        -1977.80463814 Eh          -53818.80030 eV
Two Electron Energy:          579.46982289 Eh           15768.17552 eV

Virial components:
Potential Energy   :        -2617.10331698 Eh          -71215.00176 eV
Kinetic Energy     :         1307.37519260 Eh           35575.48761 eV
Virial Ratio       :            2.00179974


DFT components:
N(Alpha)           :       20.999994697600 electrons
N(Beta)            :       17.999995938431 electrons
N(Total)           :       38.999990636031 electrons
E(X)               :      -68.919410649444 Eh       
E(C)               :       -1.545048265536 Eh       
E(XC)              :      -70.464458914980 Eh       
DFET-embed. en.    :        0.000000000000 Eh       

---------------
SCF CONVERGENCE
---------------

  Last Energy change         ...   -8.4555e-07  Tolerance :   1.0000e-06
  Last MAX-Density change    ...    1.8019e-03  Tolerance :   1.0000e-05
  Last RMS-Density change    ...    1.6745e-05  Tolerance :   1.0000e-06
  Last DIIS Error            ...    7.9655e-05  Tolerance :   1.0000e-06

             **** THE GBW FILE WAS UPDATED (09_TiCl.gbw) ****
             **** DENSITY FILE WAS UPDATED (09_TiCl.scfp) ****
             **** ENERGY FILE WAS UPDATED (09_TiCl.en.tmp) ****
----------------------
UHF SPIN CONTAMINATION
----------------------

Warning: in a DFT calculation there is little theoretical justification to 
         calculate <S**2> as in Hartree-Fock theory. We will do it anyways
         but you should keep in mind that the values have only limited relevance

Expectation value of <S**2>     :     3.761198
Ideal value S*(S+1) for S=1.5   :     3.750000
Deviation                       :     0.011198

             **** THE GBW FILE WAS UPDATED (09_TiCl.gbw) ****
             **** DENSITY FILE WAS UPDATED (09_TiCl.scfp) ****
----------------
ORBITAL ENERGIES
----------------
                 SPIN UP ORBITALS
  NO   OCC          E(Eh)            E(eV) 
   0   1.0000    -178.525239     -4857.9187 
   1   1.0000    -101.236866     -2754.7952 
   2   1.0000     -19.734645      -537.0070 
   3   1.0000     -16.453332      -447.7179 
   4   1.0000     -16.443572      -447.4523 
   5   1.0000     -16.441443      -447.3944 
   6   1.0000      -9.293201      -252.8809 
   7   1.0000      -7.047446      -191.7708 
   8   1.0000      -7.047220      -191.7646 
   9   1.0000      -7.046473      -191.7443 
  10   1.0000      -2.294335       -62.4320 
  11   1.0000      -1.428566       -38.8733 
  12   1.0000      -1.421988       -38.6943 
  13   1.0000      -1.419075       -38.6150 
  14   1.0000      -0.729639       -19.8545 
  15   1.0000      -0.308404        -8.3921 
  16   1.0000      -0.281688        -7.6651 
  17   1.0000      -0.279058        -7.5936 
  18   1.0000      -0.173259        -4.7146 
  19   1.0000      -0.169798        -4.6204 
  20   1.0000      -0.148436        -4.0392 
  21   0.0000      -0.115607        -3.1458 
  22   0.0000      -0.104093        -2.8325 
  23   0.0000      -0.082029        -2.2321 
  24   0.0000      -0.041774        -1.1367 
  25   0.0000      -0.041248        -1.1224 
  26   0.0000       0.013002         0.3538 
  27   0.0000       0.015153         0.4123 
  28   0.0000       0.029001         0.7892 
  29   0.0000       0.030474         0.8292 
  30   0.0000       0.044896         1.2217 
  31   0.0000       0.045630         1.2417 
  32   0.0000       0.046393         1.2624 
  33   0.0000       0.046707         1.2709 
  34   0.0000       0.048696         1.3251 
  35   0.0000       0.058688         1.5970 
  36   0.0000       0.092373         2.5136 
  37   0.0000       0.126680         3.4471 
  38   0.0000       0.129635         3.5276 
  39   0.0000       0.130698         3.5565 
  40   0.0000       0.132691         3.6107 
  41   0.0000       0.138422         3.7666 
  42   0.0000       0.139101         3.7851 
  43   0.0000       0.143047         3.8925 
  44   0.0000       0.146362         3.9827 
  45   0.0000       0.151719         4.1285 
  46   0.0000       0.152328         4.1450 
  47   0.0000       0.198471         5.4007 
  48   0.0000       0.212601         5.7852 
  49   0.0000       0.214039         5.8243 
  50   0.0000       0.248203         6.7540 
  51   0.0000       0.248576         6.7641 
  52   0.0000       0.274543         7.4707 
  53   0.0000       0.301216         8.1965 
  54   0.0000       0.304671         8.2905 
  55   0.0000       0.333481         9.0745 
  56   0.0000       0.356769         9.7082 
  57   0.0000       0.359241         9.7754 
  58   0.0000       0.359283         9.7766 
  59   0.0000       0.361898         9.8478 
  60   0.0000       0.393425        10.7057 
  61   0.0000       0.429898        11.6981 
  62   0.0000       0.506002        13.7690 
  63   0.0000       0.514804        14.0085 
  64   0.0000       0.516119        14.0443 
  65   0.0000       0.530828        14.4446 
  66   0.0000       0.553327        15.0568 
  67   0.0000       0.560393        15.2491 
  68   0.0000       0.628761        17.1095 
  69   0.0000       0.708984        19.2924 
  70   0.0000       0.712548        19.3894 
  71   0.0000       0.730417        19.8757 
  72   0.0000       0.769775        20.9467 
  73   0.0000       0.772298        21.0153 
  74   0.0000       0.811843        22.0914 
  75   0.0000       0.812099        22.0983 
  76   0.0000       0.813550        22.1378 
  77   0.0000       0.859880        23.3985 
  78   0.0000       0.867999        23.6195 
  79   0.0000       0.868877        23.6433 
  80   0.0000       0.897650        24.4263 
  81   0.0000       0.902750        24.5651 
  82   0.0000       0.907455        24.6931 
  83   0.0000       0.908803        24.7298 
  84   0.0000       0.911376        24.7998 
  85   0.0000       0.916104        24.9285 
  86   0.0000       0.922841        25.1118 
  87   0.0000       0.924393        25.1540 
  88   0.0000       0.968004        26.3407 
  89   0.0000       0.970080        26.3972 
  90   0.0000       0.972895        26.4738 
  91   0.0000       1.147786        31.2328 
  92   0.0000       1.148893        31.2630 
  93   0.0000       1.226994        33.3882 
  94   0.0000       1.230542        33.4847 
  95   0.0000       1.285920        34.9917 
  96   0.0000       1.409048        38.3421 
  97   0.0000       1.410492        38.3814 
  98   0.0000       1.431391        38.9501 
  99   0.0000       1.647861        44.8406 
 100   0.0000       1.653334        44.9895 
 101   0.0000       1.871403        50.9235 
 102   0.0000       1.890484        51.4427 
 103   0.0000       1.893953        51.5371 
 104   0.0000       1.916389        52.1476 
 105   0.0000       2.076896        56.5152 
 106   0.0000       2.117232        57.6128 
 107   0.0000       2.209140        60.1138 
 108   0.0000       2.231669        60.7268 
 109   0.0000       2.242102        61.0107 
 110   0.0000       2.317945        63.0745 
 111   0.0000       2.318417        63.0873 
 112   0.0000       2.393311        65.1253 
 113   0.0000       2.423996        65.9603 
 114   0.0000       2.426679        66.0333 
 115   0.0000       2.596234        70.6471 
 116   0.0000       2.596877        70.6646 
 117   0.0000       2.607791        70.9616 
 118   0.0000       2.864932        77.9588 
 119   0.0000       2.865299        77.9687 
 120   0.0000       2.948113        80.2222 
 121   0.0000       2.948658        80.2370 
 122   0.0000       2.970900        80.8423 
 123   0.0000       3.012786        81.9821 
 124   0.0000       3.014011        82.0154 
 125   0.0000       3.121332        84.9358 
 126   0.0000       3.261788        88.7578 
 127   0.0000       3.266482        88.8855 
 128   0.0000       3.269174        88.9588 
 129   0.0000       3.269514        88.9680 
 130   0.0000       3.293372        89.6172 
 131   0.0000       3.298034        89.7441 
 132   0.0000       3.390274        92.2540 
 133   0.0000       3.401254        92.5528 
 134   0.0000       3.418805        93.0304 
 135   0.0000       3.424606        93.1883 
 136   0.0000       3.430435        93.3469 
 137   0.0000       3.472105        94.4808 
 138   0.0000       3.635571        98.9289 
 139   0.0000       3.673222        99.9535 
 140   0.0000       3.682787       100.2137 
 141   0.0000       4.255007       115.7846 
 142   0.0000       6.505558       177.0252 

                 SPIN DOWN ORBITALS
  NO   OCC          E(Eh)            E(eV) 
   0   1.0000    -178.525281     -4857.9199 
   1   1.0000    -101.237342     -2754.8081 
   2   1.0000     -19.711689      -536.3823 
   3   1.0000     -16.432417      -447.1488 
   4   1.0000     -16.426308      -446.9826 
   5   1.0000     -16.417000      -446.7293 
   6   1.0000      -9.292023      -252.8488 
   7   1.0000      -7.047963      -191.7848 
   8   1.0000      -7.047323      -191.7674 
   9   1.0000      -7.046086      -191.7338 
  10   1.0000      -2.241554       -60.9958 
  11   1.0000      -1.369482       -37.2655 
  12   1.0000      -1.361201       -37.0402 
  13   1.0000      -1.337524       -36.3959 
  14   1.0000      -0.732100       -19.9215 
  15   1.0000      -0.304530        -8.2867 
  16   1.0000      -0.279759        -7.6126 
  17   1.0000      -0.275903        -7.5077 
  18   0.0000      -0.067841        -1.8461 
  19   0.0000      -0.053727        -1.4620 
  20   0.0000      -0.050321        -1.3693 
  21   0.0000      -0.039010        -1.0615 
  22   0.0000      -0.021959        -0.5975 
  23   0.0000      -0.021490        -0.5848 
  24   0.0000      -0.004050        -0.1102 
  25   0.0000      -0.003079        -0.0838 
  26   0.0000       0.011522         0.3135 
  27   0.0000       0.017534         0.4771 
  28   0.0000       0.035290         0.9603 
  29   0.0000       0.038055         1.0355 
  30   0.0000       0.038235         1.0404 
  31   0.0000       0.038436         1.0459 
  32   0.0000       0.038887         1.0582 
  33   0.0000       0.041183         1.1206 
  34   0.0000       0.042408         1.1540 
  35   0.0000       0.067695         1.8421 
  36   0.0000       0.094486         2.5711 
  37   0.0000       0.136261         3.7079 
  38   0.0000       0.138250         3.7620 
  39   0.0000       0.138539         3.7698 
  40   0.0000       0.140486         3.8228 
  41   0.0000       0.141277         3.8443 
  42   0.0000       0.143028         3.8920 
  43   0.0000       0.146374         3.9830 
  44   0.0000       0.146633         3.9901 
  45   0.0000       0.153089         4.1658 
  46   0.0000       0.153575         4.1790 
  47   0.0000       0.206460         5.6181 
  48   0.0000       0.216310         5.8861 
  49   0.0000       0.218698         5.9511 
  50   0.0000       0.249419         6.7870 
  51   0.0000       0.250460         6.8154 
  52   0.0000       0.283808         7.7228 
  53   0.0000       0.292221         7.9517 
  54   0.0000       0.298602         8.1254 
  55   0.0000       0.324763         8.8373 
  56   0.0000       0.357187         9.7196 
  57   0.0000       0.357395         9.7252 
  58   0.0000       0.358710         9.7610 
  59   0.0000       0.361906         9.8480 
  60   0.0000       0.400548        10.8995 
  61   0.0000       0.440377        11.9833 
  62   0.0000       0.556475        15.1425 
  63   0.0000       0.559283        15.2189 
  64   0.0000       0.560381        15.2487 
  65   0.0000       0.566559        15.4169 
  66   0.0000       0.575329        15.6555 
  67   0.0000       0.580361        15.7924 
  68   0.0000       0.653020        17.7696 
  69   0.0000       0.731855        19.9148 
  70   0.0000       0.733800        19.9677 
  71   0.0000       0.756490        20.5851 
  72   0.0000       0.782336        21.2885 
  73   0.0000       0.782360        21.2891 
  74   0.0000       0.820913        22.3382 
  75   0.0000       0.823343        22.4043 
  76   0.0000       0.824824        22.4446 
  77   0.0000       0.876165        23.8417 
  78   0.0000       0.880989        23.9729 
  79   0.0000       0.881834        23.9959 
  80   0.0000       0.913484        24.8572 
  81   0.0000       0.915681        24.9169 
  82   0.0000       0.935751        25.4631 
  83   0.0000       0.941851        25.6291 
  84   0.0000       0.949654        25.8414 
  85   0.0000       0.951380        25.8884 
  86   0.0000       0.977323        26.5943 
  87   0.0000       0.981695        26.7133 
  88   0.0000       0.988238        26.8913 
  89   0.0000       0.989813        26.9342 
  90   0.0000       0.990510        26.9531 
  91   0.0000       1.158366        31.5208 
  92   0.0000       1.158885        31.5349 
  93   0.0000       1.237326        33.6694 
  94   0.0000       1.240359        33.7519 
  95   0.0000       1.297523        35.3074 
  96   0.0000       1.420392        38.6508 
  97   0.0000       1.423337        38.7310 
  98   0.0000       1.449757        39.4499 
  99   0.0000       1.673004        45.5248 
 100   0.0000       1.679605        45.7044 
 101   0.0000       1.905091        51.8402 
 102   0.0000       1.949836        53.0577 
 103   0.0000       1.960253        53.3412 
 104   0.0000       1.964911        53.4679 
 105   0.0000       2.188109        59.5415 
 106   0.0000       2.203852        59.9699 
 107   0.0000       2.298634        62.5490 
 108   0.0000       2.309400        62.8420 
 109   0.0000       2.320867        63.1540 
 110   0.0000       2.321256        63.1646 
 111   0.0000       2.322882        63.2088 
 112   0.0000       2.410288        65.5873 
 113   0.0000       2.426619        66.0317 
 114   0.0000       2.429946        66.1222 
 115   0.0000       2.611392        71.0596 
 116   0.0000       2.616321        71.1937 
 117   0.0000       2.653567        72.2072 
 118   0.0000       2.872998        78.1783 
 119   0.0000       2.873025        78.1790 
 120   0.0000       2.959140        80.5223 
 121   0.0000       2.959395        80.5292 
 122   0.0000       3.000007        81.6343 
 123   0.0000       3.022929        82.2581 
 124   0.0000       3.026731        82.3615 
 125   0.0000       3.178994        86.5048 
 126   0.0000       3.413864        92.8960 
 127   0.0000       3.414839        92.9225 
 128   0.0000       3.418102        93.0113 
 129   0.0000       3.420035        93.0639 
 130   0.0000       3.427539        93.2681 
 131   0.0000       3.433309        93.4251 
 132   0.0000       3.512507        95.5802 
 133   0.0000       3.528818        96.0240 
 134   0.0000       3.538604        96.2903 
 135   0.0000       3.540864        96.3518 
 136   0.0000       3.558811        96.8402 
 137   0.0000       3.583729        97.5182 
 138   0.0000       3.719069       101.2010 
 139   0.0000       3.765082       102.4531 
 140   0.0000       3.800038       103.4043 
 141   0.0000       4.337838       118.0386 
 142   0.0000       6.506353       177.0469 

                    ********************************
                    * MULLIKEN POPULATION ANALYSIS *
                    ********************************

--------------------------------------------
MULLIKEN ATOMIC CHARGES AND SPIN POPULATIONS
--------------------------------------------
   0 Ti:    0.372129    3.000451
   1 Cl:   -0.372129   -0.000451
Sum of atomic charges         :   -0.0000000
Sum of atomic spin populations:    3.0000000

-----------------------------------------------------
MULLIKEN REDUCED ORBITAL CHARGES AND SPIN POPULATIONS
-----------------------------------------------------
CHARGE
  0 Tis       :     6.755274  s :     6.755274
      pz      :     4.117244  p :    12.224800
      px      :     4.073806
      py      :     4.033750
      dz2     :     0.477852  d :     2.611529
      dxz     :     0.901884
      dyz     :     0.197822
      dx2y2   :     0.401110
      dxy     :     0.632862
      f0      :     0.008651  f :     0.026948
      f+1     :     0.010222
      f-1     :     0.007438
      f+2     :     0.000177
      f-2     :     0.000201
      f+3     :     0.000122
      f-3     :     0.000137
      g0      :     0.001799  g :     0.009320
      g+1     :     0.003839
      g-1     :     0.003424
      g+2     :     0.000043
      g-2     :     0.000022
      g+3     :     0.000004
      g-3     :     0.000003
      g+4     :     0.000033
      g-4     :     0.000153
  1 Cls       :     5.920349  s :     5.920349
      pz      :     3.678307  p :    11.428903
      px      :     3.897406
      py      :     3.853190
      dz2     :     0.003222  d :     0.019954
      dxz     :     0.009554
      dyz     :     0.005674
      dx2y2   :     0.000587
      dxy     :     0.000918
      f0      :     0.000829  f :     0.002923
      f+1     :     0.001027
      f-1     :     0.000697
      f+2     :     0.000152
      f-2     :     0.000217
      f+3     :     0.000001
      f-3     :     0.000001

SPIN
  0 Tis       :     0.625367  s :     0.625367
      pz      :     0.037397  p :     0.099595
      px      :     0.051529
      py      :     0.010669
      dz2     :     0.306594  d :     2.277120
      dxz     :     0.826729
      dyz     :     0.109999
      dx2y2   :     0.401002
      dxy     :     0.632796
      f0      :    -0.001432  f :    -0.001074
      f+1     :     0.001598
      f-1     :    -0.001686
      f+2     :     0.000123
      f-2     :     0.000170
      f+3     :     0.000049
      f-3     :     0.000104
      g0      :    -0.000188  g :    -0.000557
      g+1     :    -0.000108
      g-1     :    -0.000496
      g+2     :     0.000037
      g-2     :     0.000018
      g+3     :     0.000002
      g-3     :     0.000002
      g+4     :     0.000032
      g-4     :     0.000144
  1 Cls       :     0.036417  s :     0.036417
      pz      :    -0.043510  p :    -0.048670
      px      :     0.012642
      py      :    -0.017803
      dz2     :     0.002735  d :     0.010389
      dxz     :     0.004928
      dyz     :     0.001228
      dx2y2   :     0.000583
      dxy     :     0.000915
      f0      :     0.000433  f :     0.001414
      f+1     :     0.000435
      f-1     :     0.000179
      f+2     :     0.000151
      f-2     :     0.000216
      f+3     :    -0.000001
      f-3     :    -0.000001


                     *******************************
                     * LOEWDIN POPULATION ANALYSIS *
                     *******************************

-------------------------------------------
LOEWDIN ATOMIC CHARGES AND SPIN POPULATIONS
-------------------------------------------
   0 Ti:   -0.148699    2.897106
   1 Cl:    0.148699    0.102894

----------------------------------------------------
LOEWDIN REDUCED ORBITAL CHARGES AND SPIN POPULATIONS
----------------------------------------------------
CHARGE
  0 Tis       :     6.555854  s :     6.555854
      pz      :     4.174916  p :    12.299947
      px      :     4.093770
      py      :     4.031261
      dz2     :     0.613014  d :     2.815348
      dxz     :     0.915993
      dyz     :     0.262681
      dx2y2   :     0.397114
      dxy     :     0.626545
      f0      :     0.128953  f :     0.325325
      f+1     :     0.103193
      f-1     :     0.091891
      f+2     :     0.000417
      f-2     :     0.000610
      f+3     :     0.000122
      f-3     :     0.000137
      g0      :     0.044901  g :     0.152225
      g+1     :     0.054937
      g-1     :     0.051897
      g+2     :     0.000141
      g-2     :     0.000156
      g+3     :     0.000004
      g-3     :     0.000003
      g+4     :     0.000033
      g-4     :     0.000153
  1 Cls       :     5.542351  s :     5.542351
      pz      :     3.731250  p :    11.014460
      px      :     3.655864
      py      :     3.627346
      dz2     :     0.123473  d :     0.207591
      dxz     :     0.051482
      dyz     :     0.025680
      dx2y2   :     0.002705
      dxy     :     0.004251
      f0      :     0.048813  f :     0.086900
      f+1     :     0.022497
      f-1     :     0.011239
      f+2     :     0.001692
      f-2     :     0.002657
      f+3     :     0.000001
      f-3     :     0.000001

SPIN
  0 Tis       :     0.589686  s :     0.589686
      pz      :     0.034935  p :     0.120993
      px      :     0.073851
      py      :     0.012207
      dz2     :     0.293394  d :     2.181255
      dxz     :     0.763869
      dyz     :     0.100507
      dx2y2   :     0.397005
      dxy     :     0.626480
      f0      :    -0.000854  f :     0.004947
      f+1     :     0.007376
      f-1     :    -0.002669
      f+2     :     0.000363
      f-2     :     0.000579
      f+3     :     0.000049
      f-3     :     0.000104
      g0      :    -0.000173  g :     0.000225
      g+1     :     0.001186
      g-1     :    -0.001255
      g+2     :     0.000135
      g-2     :     0.000152
      g+3     :     0.000002
      g-3     :     0.000002
      g+4     :     0.000032
      g-4     :     0.000144
  1 Cls       :     0.022808  s :     0.022808
      pz      :     0.018256  p :     0.014217
      px      :     0.008482
      py      :    -0.012522
      dz2     :     0.004308  d :     0.045433
      dxz     :     0.030007
      dyz     :     0.004169
      dx2y2   :     0.002701
      dxy     :     0.004249
      f0      :     0.001453  f :     0.020436
      f+1     :     0.012983
      f-1     :     0.001655
      f+2     :     0.001691
      f-2     :     0.002656
      f+3     :    -0.000001
      f-3     :    -0.000001


                      *****************************
                      * MAYER POPULATION ANALYSIS *
                      *****************************

  NA   - Mulliken gross atomic population
  ZA   - Total nuclear charge
  QA   - Mulliken gross atomic charge
  VA   - Mayer's total valence
  BVA  - Mayer's bonded valence
  FA   - Mayer's free valence

  ATOM       NA         ZA         QA         VA         BVA        FA
  0 Ti    21.6279    22.0000     0.3721     4.0525     1.1866     2.8659
  1 Cl    17.3721    17.0000    -0.3721     1.1935     1.1866     0.0070

  Mayer bond orders larger than 0.100000
B(  0-Ti,  1-Cl) :   1.1866 

-------
TIMINGS
-------

Total SCF time: 0 days 0 hours 0 min 7 sec 

Total time                  ....       7.212 sec
Sum of individual times     ....       6.989 sec  ( 96.9%)

Fock matrix formation       ....       6.439 sec  ( 89.3%)
  Split-RI-J                ....       4.706 sec  ( 73.1% of F)
  XC integration            ....       1.522 sec  ( 23.6% of F)
    Basis function eval.    ....       0.190 sec  ( 12.5% of XC)
    Density eval.           ....       0.204 sec  ( 13.4% of XC)
    XC-Functional eval.     ....       0.037 sec  (  2.4% of XC)
    XC-Potential eval.      ....       0.606 sec  ( 39.8% of XC)
Diagonalization             ....       0.192 sec  (  2.7%)
Density matrix formation    ....       0.022 sec  (  0.3%)
Population analysis         ....       0.007 sec  (  0.1%)
Initial guess               ....       0.102 sec  (  1.4%)
Orbital Transformation      ....       0.000 sec  (  0.0%)
Orbital Orthonormalization  ....       0.000 sec  (  0.0%)
DIIS solution               ....       0.069 sec  (  1.0%)
Grid generation             ....       0.157 sec  (  2.2%)


-------------------------------------------------------------------------------
                          DFT DISPERSION CORRECTION                            
                                                                               
                              DFTD3 V3.1  Rev 1                                
                          USING Becke-Johnson damping                          
-------------------------------------------------------------------------------
The SCAN functional is recognized
Active option DFTDOPT                   ...         4   

molecular C6(AA) [au] = 943.932341 


            DFT-D V3
 parameters
 s6 scaling factor         :     1.0000 
 a1 scaling factor         :     0.5380 
 s8 scaling factor         :     0.0000 
 a2 scaling factor         :     5.4200 
 ad hoc parameters k1-k3   :    16.0000     1.3333    -4.0000 

 Edisp/kcal,au: -0.122779593203  -0.000195661715 
 E6   /kcal   :  -0.122779593 
 E8   /kcal   :  -0.000000000 
 % E8         :   0.000000000 

-------------------------   ----------------
Dispersion correction           -0.000195662
-------------------------   ----------------


-------------------------   --------------------
FINAL SINGLE POINT ENERGY     -1309.728320040790
-------------------------   --------------------


                            ***************************************
                            *     ORCA property calculations      *
                            ***************************************

                                    ---------------------
                                    Active property flags
                                    ---------------------
   (+) Dipole Moment


------------------------------------------------------------------------------
                       ORCA ELECTRIC PROPERTIES CALCULATION
------------------------------------------------------------------------------

Dipole Moment Calculation                       ... on
Quadrupole Moment Calculation                   ... off
Polarizability Calculation                      ... off
GBWName                                         ... 09_TiCl.gbw
Electron density file                           ... 09_TiCl.scfp
The origin for moment calculation is the CENTER OF MASS  = ( 0.000000,  0.000000  1.574575)

-------------
DIPOLE MOMENT
-------------
                                X             Y             Z
Electronic contribution:     -0.00000       0.00000      -3.30701
Nuclear contribution   :      0.00000       0.00000       1.73863
                        -----------------------------------------
Total Dipole Moment    :     -0.00000       0.00000      -1.56837
                        -----------------------------------------
Magnitude (a.u.)       :      1.56837
Magnitude (Debye)      :      3.98648



--------------------
Rotational spectrum 
--------------------
 
Rotational constants in cm-1:     0.000000     0.165851     0.165851 
Rotational constants in MHz :     0.000000  4972.077671  4972.077671 

 Dipole components along the rotational axes: 
x,y,z [a.u.] :    -1.568371     0.000000    -0.000000 
x,y,z [Debye]:    -3.986483     0.000000    -0.000001 

 

Timings for individual modules:

Sum of individual times         ...       10.691 sec (=   0.178 min)
GTO integral calculation        ...        3.131 sec (=   0.052 min)  29.3 %
SCF iterations                  ...        7.560 sec (=   0.126 min)  70.7 %
                             ****ORCA TERMINATED NORMALLY****
TOTAL RUN TIME: 0 days 0 hours 0 minutes 11 seconds 278 msec
