
                                 *****************
                                 * O   R   C   A *
                                 *****************

           --- An Ab Initio, DFT and Semiempirical electronic structure package ---

                  #######################################################
                  #                        -***-                        #
                  #          Department of theory and spectroscopy      #
                  #               Directorship: Frank Neese             #
                  #        Max Planck Institute fuer Kohlenforschung    #
                  #                Kaiser Wilhelm Platz 1               #
                  #                 D-45470 Muelheim/Ruhr               #
                  #                      Germany                        #
                  #                                                     #
                  #                  All rights reserved                #
                  #                        -***-                        #
                  #######################################################


                         Program Version 4.2.0 -  RELEASE  -


 With contributions from (in alphabetic order):
   Daniel Aravena         : Magnetic Suceptibility
   Michael Atanasov       : Ab Initio Ligand Field Theory (pilot matlab implementation)
   Alexander A. Auer      : GIAO ZORA, VPT2
   Ute Becker             : Parallelization
   Giovanni Bistoni       : ED, misc. LED, open-shell LED, HFLED
   Martin Brehm           : Molecular dynamics
   Dmytro Bykov           : SCF Hessian
   Vijay G. Chilkuri      : MRCI spin determinant printing, contributions to CSF-ICE
   Dipayan Datta          : RHF DLPNO-CCSD density
   Achintya Kumar Dutta   : EOM-CC, STEOM-CC
   Dmitry Ganyushin       : Spin-Orbit,Spin-Spin,Magnetic field MRCI
   Miquel Garcia          : C-PCM Hessian, Gaussian charge scheme
   Yang Guo               : DLPNO-NEVPT2, CIM, IAO-localization
   Andreas Hansen         : Spin unrestricted coupled pair/coupled cluster methods
   Benjamin Helmich-Paris : CASSCF linear response (MC-RPA)
   Lee Huntington         : MR-EOM, pCC
   Robert Izsak           : Overlap fitted RIJCOSX, COSX-SCS-MP3, EOM
   Christian Kollmar      : KDIIS, OOCD, Brueckner-CCSD(T), CCSD density
   Simone Kossmann        : Meta GGA functionals, TD-DFT gradient, OOMP2, MP2 Hessian
   Martin Krupicka        : AUTO-CI
   Lucas Lang             : DCDCAS
   Dagmar Lenk            : GEPOL surface, SMD
   Dimitrios Liakos       : Extrapolation schemes; Compound Job, initial MDCI parallelization
   Dimitrios Manganas     : Further ROCIS development; embedding schemes
   Dimitrios Pantazis     : SARC Basis sets
   Taras Petrenko         : DFT Hessian,TD-DFT gradient, ASA, ECA, R-Raman, ABS, FL, XAS/XES, NRVS
   Peter Pinski           : DLPNO-MP2, DLPNO-MP2 Gradient
   Christoph Reimann      : Effective Core Potentials
   Marius Retegan         : Local ZFS, SOC
   Christoph Riplinger    : Optimizer, TS searches, QM/MM, DLPNO-CCSD(T), (RO)-DLPNO pert. Triples
   Tobias Risthaus        : Range-separated hybrids, TD-DFT gradient, RPA, STAB
   Michael Roemelt        : Original ROCIS implementation
   Masaaki Saitow         : Open-shell DLPNO-CCSD energy and density
   Barbara Sandhoefer     : DKH picture change effects
   Avijit Sen             : IP-ROCIS
   Kantharuban Sivalingam : CASSCF convergence, NEVPT2, FIC-MRCI
   Bernardo de Souza      : ESD, SOC TD-DFT
   Georgi Stoychev        : AutoAux, RI-MP2 NMR
   Willem Van den Heuvel  : Paramagnetic NMR
   Boris Wezisla          : Elementary symmetry handling
   Frank Wennmohs         : Technical directorship


 We gratefully acknowledge several colleagues who have allowed us to
 interface, adapt or use parts of their codes:
   Stefan Grimme, W. Hujo, H. Kruse,             : VdW corrections, initial TS optimization,
                  C. Bannwarth                     DFT functionals, gCP, sTDA/sTD-DF
   Ed Valeev, F. Pavosevic, A. Kumar             : LibInt (2-el integral package), F12 methods
   Garnet Chan, S. Sharma, J. Yang, R. Olivares  : DMRG
   Ulf Ekstrom                                   : XCFun DFT Library
   Mihaly Kallay                                 : mrcc  (arbitrary order and MRCC methods)
   Andreas Klamt, Michael Diedenhofen            : otool_cosmo (COSMO solvation model)
   Jiri Pittner, Ondrej Demel                    : Mk-CCSD
   Frank Weinhold                                : gennbo (NPA and NBO analysis)
   Christopher J. Cramer and Donald G. Truhlar   : smd solvation model
   Lars Goerigk                                  : TD-DFT with DH, B97 family of functionals
   V. Asgeirsson, H. Jonsson                     : NEB implementation
   FAccTs GmbH                                   : IRC, NEB, NEB-TS, Multilevel, MM, QM/MM, CI optimization
   S Lehtola, MJT Oliveira, MAL Marques          : LibXC Library


 Your calculation uses the libint2 library for the computation of 2-el integrals
 For citations please refer to: http://libint.valeyev.net

 Your ORCA version has been built with support for libXC version: 4.2.3
 For citations please refer to: https://tddft.org/programs/libxc/

 This ORCA versions uses:
   CBLAS   interface :  Fast vector & matrix operations
   LAPACKE interface :  Fast linear algebra routines
   SCALAPACK package :  Parallel linear algebra routines


Your calculation utilizes the atom-pairwise dispersion correction
with the Becke-Johnson damping scheme (D3BJ)
Cite in your paper:
S.Grimme, S.Ehrlich, L.Goerigk, J Comput Chem, (2011), 32, 1456–1465 
S.Grimme, J.Antony, S.Ehrlich and H.Krieg, J.Chem.Phys., 132, (2010), 154104 
   

----- Orbital basis set information -----
Your calculation utilizes the basis: aug-cc-pVTZ 
    H, B-Ne : Obtained from the ccRepo (grant-hill.group.shef.ac.uk/ccrepo) Feb. 2017
              R. A. Kendall, T. H. Dunning, Jr., R. J. Harrison, J. Chem. Phys. 96, 6796 (1992)
         He : Obtained from the ccRepo (grant-hill.group.shef.ac.uk/ccrepo) Feb. 2017
              D. E. Woon, T. H. Dunning, Jr., J. Chem. Phys. 100, 2975 (1994)
  Li-Be, Na : Obtained from the ccRepo (grant-hill.group.shef.ac.uk/ccrepo) Feb. 2017
              B. P. Prascher, D. E. Woon, K. A. Peterson, T. H. Dunning, Jr., A. K. Wilson, Theor. Chem. Acc. 128, 69 (2011)
         Mg : Obtained from the Peterson Research Group Website (tyr0.chem.wsu.edu/~kipeters) Feb. 2017
              B. P. Prascher, D. E. Woon, K. A. Peterson, T. H. Dunning, Jr., A. K. Wilson, Theor. Chem. Acc. 128, 69 (2011)
      Al-Ar : Obtained from the ccRepo (grant-hill.group.shef.ac.uk/ccrepo) Feb. 2017
              D. E. Woon, T. H. Dunning, Jr., J. Chem. Phys. 98, 1358 (1993)
      Sc-Zn : Obtained from the ccRepo (grant-hill.group.shef.ac.uk/ccrepo) Feb. 2017
              N. B. Balabanov, K. A. Peterson, J. Chem. Phys. 123, 064107 (2005)
              N. B. Balabanov, K. A. Peterson, J. Chem. Phys. 125, 074110 (2006)
      Ga-Kr : Obtained from the ccRepo (grant-hill.group.shef.ac.uk/ccrepo) Feb. 2017
              A. K. Wilson, D. E. Woon, K. A. Peterson, T. H. Dunning, Jr., J. Chem. Phys. 110, 7667 (1999)
     Ag, Au : Obtained from the Peterson Research Group Website (tyr0.chem.wsu.edu/~kipeters) Feb. 2017
              K. A. Peterson, C. Puzzarini, Theor. Chem. Acc. 114, 283 (2005)

----- AuxJ basis set information -----
Your calculation utilizes the auxiliary basis: def2/J
   F. Weigend, Phys. Chem. Chem. Phys. 8, 1057 (2006).

================================================================================
                                        WARNINGS
                       Please study these warnings very carefully!
================================================================================


WARNING: your system is open-shell and RHF/RKS was chosen
  ===> : WILL SWITCH to UHF/UKS


WARNING: The SCAN functional is very grid-sensitive!
         Use at least GRID5 and a higher intacc

INFO   : the flag for use of LIBINT has been found!

================================================================================
                                       INPUT FILE
================================================================================
NAME = 13_VH.in
|  1> #
|  2> # 13_VH scanfunc/aug-cc-pvtz
|  3> #
|  4> ! scanfunc d3bj aug-cc-pvtz def2/j grid4 nofinalgrid
|  5> 
|  6> *xyz 0 5
|  7>   V   0.00000000000000      0.00000000000000      0.15541431667182
|  8>   H   0.00000000000000      0.00000000000000      1.84458568332818
|  9> *
| 10> 
| 11> %pal
| 12> nprocs 24
| 13> end
| 14> 
| 15> 
| 16>                          ****END OF INPUT****
================================================================================

                       ****************************
                       * Single Point Calculation *
                       ****************************

---------------------------------
CARTESIAN COORDINATES (ANGSTROEM)
---------------------------------
  V      0.000000    0.000000    0.155414
  H      0.000000    0.000000    1.844586

----------------------------
CARTESIAN COORDINATES (A.U.)
----------------------------
  NO LB      ZA    FRAG     MASS         X           Y           Z
   0 V    23.0000    0    50.940    0.000000    0.000000    0.293690
   1 H     1.0000    0     1.008    0.000000    0.000000    3.485762

--------------------------------
INTERNAL COORDINATES (ANGSTROEM)
--------------------------------
 V      0   0   0     0.000000000000     0.00000000     0.00000000
 H      1   0   0     1.689171366656     0.00000000     0.00000000

---------------------------
INTERNAL COORDINATES (A.U.)
---------------------------
 V      0   0   0     0.000000000000     0.00000000     0.00000000
 H      1   0   0     3.192071276242     0.00000000     0.00000000

---------------------
BASIS SET INFORMATION
---------------------
There are 2 groups of distinct atoms

 Group   1 Type V   : 116s77p23d3f2g contracted to 8s7p5d3f2g pattern {19191919191911/151515151511/77711/111/11}
 Group   2 Type H   : 6s3p2d contracted to 4s3p2d pattern {3111/111/11}

Atom   0V    basis set group =>   1
Atom   1H    basis set group =>   2
---------------------------------
AUXILIARY/J BASIS SET INFORMATION
---------------------------------
There are 2 groups of distinct atoms

 Group   1 Type V   : 19s5p5d3f3g contracted to 8s5p5d2f3g pattern {121111111/11111/11111/21/111}
 Group   2 Type H   : 5s2p1d contracted to 3s1p1d pattern {311/2/1}

Atom   0V    basis set group =>   1
Atom   1H    basis set group =>   2


           ************************************************************
           *        Program running with 24 parallel MPI-processes    *
           *              working on a common directory               *
           ************************************************************
------------------------------------------------------------------------------
                           ORCA GTO INTEGRAL CALCULATION
                           -- RI-GTO INTEGRALS CHOSEN --
------------------------------------------------------------------------------

                         BASIS SET STATISTICS AND STARTUP INFO

Gaussian basis set:
 # of primitive gaussian shells          ...  232
 # of primitive gaussian functions       ...  526
 # of contracted shells                  ...   34
 # of contracted basis functions         ...  116
 Highest angular momentum                ...    4
 Maximum contraction depth               ...   19
Auxiliary gaussian basis set:
 # of primitive gaussian shells          ...   43
 # of primitive gaussian functions       ...  123
 # of contracted shells                  ...   28
 # of contracted aux-basis functions     ...  100
 Highest angular momentum                ...    4
 Maximum contraction depth               ...   12
Ratio of auxiliary to basis functions    ...  0.86
Integral package used                  ... LIBINT
 One Electron integrals                  ... done
 Ordering auxiliary basis shells         ... done
 Integral threshhold             Thresh  ...  1.000e-10
 Primitive cut-off               TCut    ...  1.000e-11
 Pre-screening matrix                    ... done
 Shell pair data                         ... 
 Ordering of the shell pairs             ... done (   0.000 sec) 595 of 595 pairs
 Determination of significant pairs      ... done (   0.000 sec)
 Creation of shell pair data             ... done (   0.001 sec)
 Storage of shell pair data              ... done (   0.020 sec)
 Shell pair data done in (   0.021 sec)
 Computing two index integrals           ... done
 Cholesky decomposition of the V-matrix  ... done


Timings:
 Total evaluation time                   ...   2.139 sec (  0.036 min)
 One electron matrix time                ...   0.037 sec (  0.001 min) =  1.7%
 Schwartz matrix evaluation time         ...   2.051 sec (  0.034 min) = 95.9%
 Two index repulsion integral time       ...   0.001 sec (  0.000 min) =  0.0%
 Cholesky decomposition of V             ...   0.001 sec (  0.000 min) =  0.0%
 Three index repulsion integral time     ...   0.000 sec (  0.000 min) =  0.0%



           ************************************************************
           *        Program running with 24 parallel MPI-processes    *
           *              working on a common directory               *
           ************************************************************
-------------------------------------------------------------------------------
                                 ORCA SCF
-------------------------------------------------------------------------------

------------
SCF SETTINGS
------------
Hamiltonian:
 Density Functional     Method          .... DFT(GTOs)
 Exchange Functional    Exchange        .... SCAN
 Correlation Functional Correlation     .... SCAN
 Gradients option       PostSCFGGA      .... off
   Density functional embedding theory  .... OFF
   NL short-range parameter             ....  6.400000
 RI-approximation to the Coulomb term is turned on
   Number of auxiliary basis functions  .... 100


General Settings:
 Integral files         IntName         .... 13_VH
 Hartree-Fock type      HFTyp           .... UHF
 Total Charge           Charge          ....    0
 Multiplicity           Mult            ....    5
 Number of Electrons    NEL             ....   24
 Basis Dimension        Dim             ....  116
 Nuclear Repulsion      ENuc            ....      7.2053528915 Eh

Convergence Acceleration:
 DIIS                   CNVDIIS         .... on
   Start iteration      DIISMaxIt       ....    12
   Startup error        DIISStart       ....  0.200000
   # of expansion vecs  DIISMaxEq       ....     5
   Bias factor          DIISBfac        ....   1.050
   Max. coefficient     DIISMaxC        ....  10.000
 Newton-Raphson         CNVNR           .... off
 SOSCF                  CNVSOSCF        .... off
 Level Shifting         CNVShift        .... on
   Level shift para.    LevelShift      ....    0.2500
   Turn off err/grad.   ShiftErr        ....    0.0010
 Zerner damping         CNVZerner       .... off
 Static damping         CNVDamp         .... on
   Fraction old density DampFac         ....    0.7000
   Max. Damping (<1)    DampMax         ....    0.9800
   Min. Damping (>=0)   DampMin         ....    0.0000
   Turn off err/grad.   DampErr         ....    0.1000
 Fernandez-Rico         CNVRico         .... off

SCF Procedure:
 Maximum # iterations   MaxIter         ....   125
 SCF integral mode      SCFMode         .... Direct
   Integral package                     .... LIBINT
 Reset frequency        DirectResetFreq ....    20
 Integral Threshold     Thresh          ....  1.000e-10 Eh
 Primitive CutOff       TCut            ....  1.000e-11 Eh

Convergence Tolerance:
 Convergence Check Mode ConvCheckMode   .... Total+1el-Energy
 Convergence forced     ConvForced      .... 0
 Energy Change          TolE            ....  1.000e-06 Eh
 1-El. energy change                    ....  1.000e-03 Eh
 DIIS Error             TolErr          ....  1.000e-06


Diagonalization of the overlap matrix:
Smallest eigenvalue                        ... 6.604e-05
Time for diagonalization                   ...    0.004 sec
Threshold for overlap eigenvalues          ... 1.000e-08
Number of eigenvalues below threshold      ... 0
Time for construction of square roots      ...    0.002 sec
Total time needed                          ...    0.006 sec

-------------------
DFT GRID GENERATION
-------------------

General Integration Accuracy     IntAcc      ...  4.670
Radial Grid Type                 RadialGrid  ... Gauss-Chebyshev
Angular Grid (max. acc.)         AngularGrid ... Lebedev-302
Angular grid pruning method      GridPruning ... 3 (G Style)
Weight generation scheme         WeightScheme... Becke
Basis function cutoff            BFCut       ...    1.0000e-10
Integration weight cutoff        WCut        ...    1.0000e-14
Grids for H and He will be reduced by one unit

# of grid points (after initial pruning)     ...  13058 (   0.0 sec)
# of grid points (after weights+screening)   ...  13022 (   0.0 sec)
nearest neighbour list constructed           ...    0.0 sec
Grid point re-assignment to atoms done       ...    0.0 sec
Grid point division into batches done        ...    0.1 sec
Reduced shell lists constructed in    0.1 sec

Total number of grid points                  ...    13022
Total number of batches                      ...      205
Average number of points per batch           ...       63
Average number of grid points per atom       ...     6511
Average number of shells per batch           ...    17.00 (50.00%)
Average number of basis functions per batch  ...    41.20 (35.52%)
Average number of large shells per batch     ...    11.50 (67.65%)
Average number of large basis fcns per batch ...    29.50 (71.60%)
Maximum spatial batch extension              ...  31.41, 28.57, 18.88 au
Average spatial batch extension              ...   1.01,  0.93,  0.72 au

Time for grid setup =    0.164 sec

------------------------------
INITIAL GUESS: MODEL POTENTIAL
------------------------------
Loading Hartree-Fock densities                     ... done
Calculating cut-offs                               ... done
Setting up the integral package                    ... done
Initializing the effective Hamiltonian             ... done
Starting the Coulomb interaction                   ... done (   0.0 sec)
Reading the grid                                   ... done
Mapping shells                                     ... done
Starting the XC term evaluation                    ... done (   0.0 sec)
  promolecular density results
     # of electrons  =     23.999512250
     EX              =    -49.915063941
     EC              =     -0.413301414
     EX+EC           =    -50.328365355
Transforming the Hamiltonian                       ... done (   0.0 sec)
Diagonalizing the Hamiltonian                      ... done (   0.0 sec)
Back transforming the eigenvectors                 ... done (   0.0 sec)
Now organizing SCF variables                       ... done
                      ------------------
                      INITIAL GUESS DONE (   0.3 sec)
                      ------------------
--------------
SCF ITERATIONS
--------------
ITER       Energy         Delta-E        Max-DP      RMS-DP      [F,P]     Damp
               ***  Starting incremental Fock matrix formation  ***
  0   -944.1288008235   0.000000000000 0.55038037  0.01254846  0.4816274 0.7000
  1   -944.3703986970  -0.241597873540 0.34628368  0.00767210  0.0882353 0.7000
                               ***Turning on DIIS***
  2   -944.3167311579   0.053667539164 0.18021883  0.00403129  0.1242147 0.7000
  3   -944.4044618221  -0.087730664253 0.58196845  0.01304925  0.0521832 0.0000
  4   -944.5729475633  -0.168485741217 0.01748722  0.00021183  0.1104833 0.7000
  5   -944.5767828163  -0.003835252920 0.06600808  0.00084140  0.0976094 0.0000
  6   -944.5888522293  -0.012069413055 0.04791427  0.00057608  0.0493916 0.0000
  7   -944.5930676146  -0.004215385300 0.03263024  0.00060251  0.0268255 0.0000
  8   -944.5944616620  -0.001394047431 0.00867683  0.00017819  0.0114549 0.0000
  9   -944.5948050422  -0.000343380125 0.00460922  0.00009302  0.0054717 0.0000
 10   -944.5949201627  -0.000115120583 0.00319759  0.00006015  0.0029179 0.0000
 11   -944.5949698464  -0.000049683669 0.00277776  0.00004947  0.0018881 0.0000
 12   -944.5949972676  -0.000027421145 0.00237124  0.00003139  0.0011615 0.0000
 13   -944.5950109527  -0.000013685142 0.00885831  0.00009911  0.0008142 0.0000
 14   -944.5950270854  -0.000016132722 0.00059976  0.00001586  0.0008643 0.0000
 15   -944.5950293414  -0.000002255995 0.00101340  0.00001563  0.0002007 0.0000
 16   -944.5950298601  -0.000000518647 0.00073785  0.00000992  0.0001653 0.0000
 17   -944.5950300151  -0.000000155061 0.00099681  0.00000840  0.0000794 0.0000
                 **** Energy Check signals convergence ****

               *****************************************************
               *                     SUCCESS                       *
               *           SCF CONVERGED AFTER  18 CYCLES          *
               *****************************************************


----------------
TOTAL SCF ENERGY
----------------

Total Energy       :         -944.59503013 Eh          -25703.73752 eV

Components:
Nuclear Repulsion  :            7.20535289 Eh             196.06762 eV
Electronic Energy  :         -951.80038302 Eh          -25899.80514 eV
One Electron Energy:        -1311.56499185 Eh          -35689.49785 eV
Two Electron Energy:          359.76460883 Eh            9789.69270 eV

Virial components:
Potential Energy   :        -1888.01568068 Eh          -51375.51855 eV
Kinetic Energy     :          943.42065055 Eh           25671.78103 eV
Virial Ratio       :            2.00124481


DFT components:
N(Alpha)           :       13.999997814777 electrons
N(Beta)            :        9.999999121405 electrons
N(Total)           :       23.999996936182 electrons
E(X)               :      -44.822921298172 Eh       
E(C)               :       -0.962931870528 Eh       
E(XC)              :      -45.785853168700 Eh       
DFET-embed. en.    :        0.000000000000 Eh       

---------------
SCF CONVERGENCE
---------------

  Last Energy change         ...   -1.1248e-07  Tolerance :   1.0000e-06
  Last MAX-Density change    ...    1.1017e-03  Tolerance :   1.0000e-05
  Last RMS-Density change    ...    7.4754e-06  Tolerance :   1.0000e-06
  Last DIIS Error            ...    8.9975e-05  Tolerance :   1.0000e-06

             **** THE GBW FILE WAS UPDATED (13_VH.gbw) ****
             **** DENSITY FILE WAS UPDATED (13_VH.scfp) ****
             **** ENERGY FILE WAS UPDATED (13_VH.en.tmp) ****
----------------------
UHF SPIN CONTAMINATION
----------------------

Warning: in a DFT calculation there is little theoretical justification to 
         calculate <S**2> as in Hartree-Fock theory. We will do it anyways
         but you should keep in mind that the values have only limited relevance

Expectation value of <S**2>     :     6.022608
Ideal value S*(S+1) for S=2.0   :     6.000000
Deviation                       :     0.022608

             **** THE GBW FILE WAS UPDATED (13_VH.gbw) ****
             **** DENSITY FILE WAS UPDATED (13_VH.scfp) ****
----------------
ORBITAL ENERGIES
----------------
                 SPIN UP ORBITALS
  NO   OCC          E(Eh)            E(eV) 
   0   1.0000    -196.394244     -5344.1591 
   1   1.0000     -22.025822      -599.3531 
   2   1.0000     -18.538253      -504.4515 
   3   1.0000     -18.538251      -504.4514 
   4   1.0000     -18.533255      -504.3155 
   5   1.0000      -2.580641       -70.2228 
   6   1.0000      -1.616246       -43.9803 
   7   1.0000      -1.616209       -43.9793 
   8   1.0000      -1.613217       -43.8979 
   9   1.0000      -0.247953        -6.7471 
  10   1.0000      -0.199524        -5.4293 
  11   1.0000      -0.179838        -4.8936 
  12   1.0000      -0.179749        -4.8912 
  13   1.0000      -0.157702        -4.2913 
  14   0.0000      -0.111698        -3.0394 
  15   0.0000      -0.083202        -2.2640 
  16   0.0000      -0.050619        -1.3774 
  17   0.0000      -0.050599        -1.3769 
  18   0.0000       0.016674         0.4537 
  19   0.0000       0.024571         0.6686 
  20   0.0000       0.033307         0.9063 
  21   0.0000       0.033326         0.9068 
  22   0.0000       0.053868         1.4658 
  23   0.0000       0.058446         1.5904 
  24   0.0000       0.058768         1.5992 
  25   0.0000       0.058780         1.5995 
  26   0.0000       0.060167         1.6372 
  27   0.0000       0.086418         2.3516 
  28   0.0000       0.107862         2.9351 
  29   0.0000       0.132465         3.6046 
  30   0.0000       0.153758         4.1840 
  31   0.0000       0.153780         4.1846 
  32   0.0000       0.175914         4.7869 
  33   0.0000       0.178083         4.8459 
  34   0.0000       0.178094         4.8462 
  35   0.0000       0.183096         4.9823 
  36   0.0000       0.187617         5.1053 
  37   0.0000       0.266977         7.2648 
  38   0.0000       0.286047         7.7837 
  39   0.0000       0.286050         7.7838 
  40   0.0000       0.379696        10.3321 
  41   0.0000       0.391100        10.6424 
  42   0.0000       0.391124        10.6430 
  43   0.0000       0.391170        10.6443 
  44   0.0000       0.394637        10.7386 
  45   0.0000       0.429708        11.6929 
  46   0.0000       0.516665        14.0592 
  47   0.0000       0.516665        14.0592 
  48   0.0000       0.539975        14.6935 
  49   0.0000       0.593823        16.1588 
  50   0.0000       0.593824        16.1588 
  51   0.0000       0.643775        17.5180 
  52   0.0000       0.670800        18.2534 
  53   0.0000       0.681339        18.5402 
  54   0.0000       0.681391        18.5416 
  55   0.0000       0.706670        19.2295 
  56   0.0000       0.768812        20.9204 
  57   0.0000       0.916400        24.9365 
  58   0.0000       0.917135        24.9565 
  59   0.0000       0.985231        26.8095 
  60   0.0000       0.985332        26.8122 
  61   0.0000       1.001175        27.2434 
  62   0.0000       1.209496        32.9121 
  63   0.0000       1.215130        33.0654 
  64   0.0000       1.215201        33.0673 
  65   0.0000       1.346603        36.6429 
  66   0.0000       1.357153        36.9300 
  67   0.0000       1.357165        36.9303 
  68   0.0000       1.357925        36.9510 
  69   0.0000       1.468597        39.9626 
  70   0.0000       1.586142        43.1611 
  71   0.0000       1.586149        43.1613 
  72   0.0000       1.632734        44.4289 
  73   0.0000       1.639065        44.6012 
  74   0.0000       1.639135        44.6031 
  75   0.0000       1.639150        44.6035 
  76   0.0000       1.802684        49.0535 
  77   0.0000       1.804681        49.1079 
  78   0.0000       1.805522        49.1307 
  79   0.0000       2.063385        56.1476 
  80   0.0000       2.063393        56.1478 
  81   0.0000       2.142953        58.3127 
  82   0.0000       2.225611        60.5620 
  83   0.0000       2.225621        60.5622 
  84   0.0000       2.309186        62.8362 
  85   0.0000       2.495082        67.8946 
  86   0.0000       2.739384        74.5424 
  87   0.0000       2.792688        75.9929 
  88   0.0000       2.820788        76.7576 
  89   0.0000       2.820843        76.7590 
  90   0.0000       3.035730        82.6064 
  91   0.0000       3.167711        86.1978 
  92   0.0000       3.860741       105.0561 
  93   0.0000       3.861988       105.0900 
  94   0.0000       4.076371       110.9237 
  95   0.0000       4.076372       110.9237 
  96   0.0000       4.224284       114.9486 
  97   0.0000       4.224291       114.9488 
  98   0.0000       4.415237       120.1447 
  99   0.0000       4.834930       131.5651 
 100   0.0000       4.841553       131.7454 
 101   0.0000       4.844359       131.8217 
 102   0.0000       4.844439       131.8239 
 103   0.0000       4.943707       134.5251 
 104   0.0000       5.071733       138.0089 
 105   0.0000       5.071794       138.0105 
 106   0.0000       5.201212       141.5322 
 107   0.0000       5.210024       141.7720 
 108   0.0000       5.211984       141.8253 
 109   0.0000       5.211993       141.8255 
 110   0.0000       5.282905       143.7552 
 111   0.0000       5.292450       144.0149 
 112   0.0000       5.392970       146.7502 
 113   0.0000       5.393006       146.7512 
 114   0.0000       5.475042       148.9835 
 115   0.0000       5.704896       155.2381 

                 SPIN DOWN ORBITALS
  NO   OCC          E(Eh)            E(eV) 
   0   1.0000    -196.395975     -5344.2062 
   1   1.0000     -21.989383      -598.3615 
   2   1.0000     -18.509289      -503.6634 
   3   1.0000     -18.509274      -503.6629 
   4   1.0000     -18.502204      -503.4706 
   5   1.0000      -2.432861       -66.2015 
   6   1.0000      -1.482072       -40.3292 
   7   1.0000      -1.481977       -40.3266 
   8   1.0000      -1.456429       -39.6315 
   9   1.0000      -0.228436        -6.2161 
  10   0.0000      -0.051758        -1.4084 
  11   0.0000      -0.047419        -1.2903 
  12   0.0000      -0.020756        -0.5648 
  13   0.0000      -0.015953        -0.4341 
  14   0.0000      -0.015929        -0.4334 
  15   0.0000      -0.012901        -0.3511 
  16   0.0000       0.026334         0.7166 
  17   0.0000       0.027998         0.7619 
  18   0.0000       0.028026         0.7626 
  19   0.0000       0.051884         1.4118 
  20   0.0000       0.051893         1.4121 
  21   0.0000       0.083005         2.2587 
  22   0.0000       0.104345         2.8394 
  23   0.0000       0.134349         3.6558 
  24   0.0000       0.149767         4.0754 
  25   0.0000       0.149788         4.0759 
  26   0.0000       0.163857         4.4588 
  27   0.0000       0.164169         4.4673 
  28   0.0000       0.168838         4.5943 
  29   0.0000       0.224189         6.1005 
  30   0.0000       0.255902         6.9635 
  31   0.0000       0.259306         7.0561 
  32   0.0000       0.259361         7.0576 
  33   0.0000       0.260601         7.0913 
  34   0.0000       0.296100         8.0573 
  35   0.0000       0.296102         8.0573 
  36   0.0000       0.301745         8.2109 
  37   0.0000       0.340466         9.2646 
  38   0.0000       0.340472         9.2647 
  39   0.0000       0.365880         9.9561 
  40   0.0000       0.434854        11.8330 
  41   0.0000       0.437656        11.9092 
  42   0.0000       0.458448        12.4750 
  43   0.0000       0.468510        12.7488 
  44   0.0000       0.468511        12.7488 
  45   0.0000       0.547268        14.8919 
  46   0.0000       0.601414        16.3653 
  47   0.0000       0.601421        16.3655 
  48   0.0000       0.630511        17.1571 
  49   0.0000       0.712230        19.3808 
  50   0.0000       0.712292        19.3824 
  51   0.0000       0.730092        19.8668 
  52   0.0000       0.771961        21.0061 
  53   0.0000       0.771972        21.0064 
  54   0.0000       0.793725        21.5984 
  55   0.0000       0.805554        21.9202 
  56   0.0000       0.841244        22.8914 
  57   0.0000       0.917634        24.9701 
  58   0.0000       0.919140        25.0111 
  59   0.0000       0.987901        26.8822 
  60   0.0000       0.987915        26.8825 
  61   0.0000       1.081489        29.4288 
  62   0.0000       1.255896        34.1747 
  63   0.0000       1.255902        34.1748 
  64   0.0000       1.269526        34.5456 
  65   0.0000       1.479903        40.2702 
  66   0.0000       1.479905        40.2703 
  67   0.0000       1.482988        40.3542 
  68   0.0000       1.487684        40.4819 
  69   0.0000       1.562089        42.5066 
  70   0.0000       1.677968        45.6598 
  71   0.0000       1.678000        45.6607 
  72   0.0000       1.711291        46.5666 
  73   0.0000       1.711649        46.5763 
  74   0.0000       1.717756        46.7425 
  75   0.0000       1.717770        46.7429 
  76   0.0000       1.857246        50.5382 
  77   0.0000       1.863514        50.7088 
  78   0.0000       1.865287        50.7571 
  79   0.0000       2.144612        58.3579 
  80   0.0000       2.144626        58.3582 
  81   0.0000       2.263219        61.5853 
  82   0.0000       2.324133        63.2429 
  83   0.0000       2.324165        63.2437 
  84   0.0000       2.378434        64.7205 
  85   0.0000       2.575169        70.0739 
  86   0.0000       2.864948        77.9592 
  87   0.0000       2.896815        78.8263 
  88   0.0000       2.959878        80.5424 
  89   0.0000       2.959879        80.5424 
  90   0.0000       3.076108        83.7052 
  91   0.0000       3.206809        87.2617 
  92   0.0000       3.794249       103.2468 
  93   0.0000       3.794447       103.2522 
  94   0.0000       4.038336       109.8887 
  95   0.0000       4.038341       109.8888 
  96   0.0000       4.194741       114.1447 
  97   0.0000       4.194749       114.1449 
  98   0.0000       4.412057       120.0582 
  99   0.0000       4.945566       134.5757 
 100   0.0000       4.969002       135.2134 
 101   0.0000       4.969012       135.2137 
 102   0.0000       4.997892       135.9996 
 103   0.0000       5.019613       136.5906 
 104   0.0000       5.210731       141.7912 
 105   0.0000       5.210752       141.7918 
 106   0.0000       5.377903       146.3402 
 107   0.0000       5.380371       146.4073 
 108   0.0000       5.400070       146.9434 
 109   0.0000       5.400074       146.9435 
 110   0.0000       5.461444       148.6134 
 111   0.0000       5.477091       149.0392 
 112   0.0000       5.556750       151.2069 
 113   0.0000       5.556769       151.2074 
 114   0.0000       5.610907       152.6805 
 115   0.0000       5.810824       158.1206 

                    ********************************
                    * MULLIKEN POPULATION ANALYSIS *
                    ********************************

--------------------------------------------
MULLIKEN ATOMIC CHARGES AND SPIN POPULATIONS
--------------------------------------------
   0 V :    0.205561    4.152251
   1 H :   -0.205561   -0.152251
Sum of atomic charges         :    0.0000000
Sum of atomic spin populations:    4.0000000

-----------------------------------------------------
MULLIKEN REDUCED ORBITAL CHARGES AND SPIN POPULATIONS
-----------------------------------------------------
CHARGE
  0 V s       :     6.938410  s :     6.938410
      pz      :     4.197939  p :    12.206983
      px      :     4.004538
      py      :     4.004506
      dz2     :     0.653258  d :     3.639952
      dxz     :     0.993494
      dyz     :     0.993519
      dx2y2   :     0.000075
      dxy     :     0.999605
      f0      :     0.007755  f :     0.008270
      f+1     :     0.000056
      f-1     :     0.000056
      f+2     :     0.000000
      f-2     :     0.000197
      f+3     :     0.000103
      f-3     :     0.000103
      g0      :     0.000692  g :     0.000824
      g+1     :    -0.000002
      g-1     :    -0.000002
      g+2     :     0.000000
      g-2     :     0.000000
      g+3     :     0.000012
      g-3     :     0.000012
      g+4     :     0.000112
      g-4     :     0.000000
  1 H s       :     1.196050  s :     1.196050
      pz      :     0.003858  p :     0.008135
      px      :     0.002136
      py      :     0.002141
      dz2     :     0.001925  d :     0.001376
      dxz     :    -0.000336
      dyz     :    -0.000336
      dx2y2   :     0.000000
      dxy     :     0.000123

SPIN
  0 V s       :     0.687199  s :     0.687199
      pz      :     0.087796  p :     0.099123
      px      :     0.005677
      py      :     0.005650
      dz2     :     0.379195  d :     3.365785
      dxz     :     0.993442
      dyz     :     0.993467
      dx2y2   :     0.000075
      dxy     :     0.999605
      f0      :    -0.000008  f :     0.000309
      f+1     :    -0.000001
      f-1     :    -0.000001
      f+2     :     0.000000
      f-2     :     0.000197
      f+3     :     0.000061
      f-3     :     0.000061
      g0      :    -0.000282  g :    -0.000165
      g+1     :    -0.000002
      g-1     :    -0.000002
      g+2     :     0.000000
      g-2     :     0.000000
      g+3     :     0.000012
      g-3     :     0.000012
      g+4     :     0.000097
      g-4     :     0.000000
  1 H s       :    -0.149007  s :    -0.149007
      pz      :    -0.004487  p :    -0.001036
      px      :     0.001724
      py      :     0.001727
      dz2     :    -0.000504  d :    -0.002209
      dxz     :    -0.000913
      dyz     :    -0.000915
      dx2y2   :     0.000000
      dxy     :     0.000123


                     *******************************
                     * LOEWDIN POPULATION ANALYSIS *
                     *******************************

-------------------------------------------
LOEWDIN ATOMIC CHARGES AND SPIN POPULATIONS
-------------------------------------------
   0 V :    0.719876    3.837724
   1 H :   -0.719876    0.162276

----------------------------------------------------
LOEWDIN REDUCED ORBITAL CHARGES AND SPIN POPULATIONS
----------------------------------------------------
CHARGE
  0 V s       :     6.653633  s :     6.653633
      pz      :     4.160910  p :    12.071333
      px      :     3.955235
      py      :     3.955187
      dz2     :     0.667927  d :     3.517723
      dxz     :     0.928964
      dyz     :     0.928993
      dx2y2   :     0.000075
      dxy     :     0.991764
      f0      :     0.026271  f :     0.031627
      f+1     :     0.002233
      f-1     :     0.002232
      f+2     :     0.000000
      f-2     :     0.000684
      f+3     :     0.000103
      f-3     :     0.000103
      g0      :     0.004718  g :     0.005809
      g+1     :     0.000446
      g-1     :     0.000446
      g+2     :     0.000000
      g-2     :     0.000063
      g+3     :     0.000012
      g-3     :     0.000012
      g+4     :     0.000112
      g-4     :     0.000000
  1 H s       :     1.122251  s :     1.122251
      pz      :     0.225868  p :     0.328678
      px      :     0.051399
      py      :     0.051411
      dz2     :     0.138309  d :     0.268946
      dxz     :     0.061608
      dyz     :     0.061615
      dx2y2   :     0.000001
      dxy     :     0.007414

SPIN
  0 V s       :     0.563316  s :     0.563316
      pz      :     0.056800  p :     0.084029
      px      :     0.013637
      py      :     0.013592
      dz2     :     0.346376  d :     3.190288
      dxz     :     0.926022
      dyz     :     0.926051
      dx2y2   :     0.000075
      dxy     :     0.991764
      f0      :    -0.003498  f :     0.000285
      f+1     :     0.001489
      f-1     :     0.001488
      f+2     :     0.000000
      f-2     :     0.000684
      f+3     :     0.000061
      f-3     :     0.000061
      g0      :    -0.001156  g :    -0.000194
      g+1     :     0.000389
      g-1     :     0.000389
      g+2     :     0.000000
      g-2     :     0.000063
      g+3     :     0.000012
      g-3     :     0.000012
      g+4     :     0.000097
      g-4     :     0.000000
  1 H s       :     0.000871  s :     0.000871
      pz      :     0.038040  p :     0.101195
      px      :     0.031572
      py      :     0.031583
      dz2     :    -0.000847  d :     0.060211
      dxz     :     0.026818
      dyz     :     0.026825
      dx2y2   :     0.000001
      dxy     :     0.007414


                      *****************************
                      * MAYER POPULATION ANALYSIS *
                      *****************************

  NA   - Mulliken gross atomic population
  ZA   - Total nuclear charge
  QA   - Mulliken gross atomic charge
  VA   - Mayer's total valence
  BVA  - Mayer's bonded valence
  FA   - Mayer's free valence

  ATOM       NA         ZA         QA         VA         BVA        FA
  0 V     22.7944    23.0000     0.2056     4.9924     1.0098     3.9826
  1 H      1.2056     1.0000    -0.2056     1.0436     1.0098     0.0339

  Mayer bond orders larger than 0.100000
B(  0-V ,  1-H ) :   1.0098 

-------
TIMINGS
-------

Total SCF time: 0 days 0 hours 0 min 3 sec 

Total time                  ....       3.370 sec
Sum of individual times     ....       3.245 sec  ( 96.3%)

Fock matrix formation       ....       2.878 sec  ( 85.4%)
  Split-RI-J                ....       2.223 sec  ( 77.2% of F)
  XC integration            ....       0.575 sec  ( 20.0% of F)
    Basis function eval.    ....       0.079 sec  ( 13.7% of XC)
    Density eval.           ....       0.074 sec  ( 12.9% of XC)
    XC-Functional eval.     ....       0.017 sec  (  2.9% of XC)
    XC-Potential eval.      ....       0.235 sec  ( 40.9% of XC)
Diagonalization             ....       0.065 sec  (  1.9%)
Density matrix formation    ....       0.010 sec  (  0.3%)
Population analysis         ....       0.006 sec  (  0.2%)
Initial guess               ....       0.095 sec  (  2.8%)
Orbital Transformation      ....       0.000 sec  (  0.0%)
Orbital Orthonormalization  ....       0.000 sec  (  0.0%)
DIIS solution               ....       0.027 sec  (  0.8%)
Grid generation             ....       0.164 sec  (  4.9%)


-------------------------------------------------------------------------------
                          DFT DISPERSION CORRECTION                            
                                                                               
                              DFTD3 V3.1  Rev 1                                
                          USING Becke-Johnson damping                          
-------------------------------------------------------------------------------
The SCAN functional is recognized
Active option DFTDOPT                   ...         4   

molecular C6(AA) [au] = 680.698413 


            DFT-D V3
 parameters
 s6 scaling factor         :     1.0000 
 a1 scaling factor         :     0.5380 
 s8 scaling factor         :     0.0000 
 a2 scaling factor         :     5.4200 
 ad hoc parameters k1-k3   :    16.0000     1.3333    -4.0000 

 Edisp/kcal,au: -0.057119409064  -0.000091025563 
 E6   /kcal   :  -0.057119409 
 E8   /kcal   :  -0.000000000 
 % E8         :   0.000000000 

-------------------------   ----------------
Dispersion correction           -0.000091026
-------------------------   ----------------


-------------------------   --------------------
FINAL SINGLE POINT ENERGY      -944.595121153172
-------------------------   --------------------


                            ***************************************
                            *     ORCA property calculations      *
                            ***************************************

                                    ---------------------
                                    Active property flags
                                    ---------------------
   (+) Dipole Moment


------------------------------------------------------------------------------
                       ORCA ELECTRIC PROPERTIES CALCULATION
------------------------------------------------------------------------------

Dipole Moment Calculation                       ... on
Quadrupole Moment Calculation                   ... off
Polarizability Calculation                      ... off
GBWName                                         ... 13_VH.gbw
Electron density file                           ... 13_VH.scfp
The origin for moment calculation is the CENTER OF MASS  = ( 0.000000,  0.000000  0.355630)

-------------
DIPOLE MOMENT
-------------
                                X             Y             Z
Electronic contribution:      0.00000       0.00000      -2.64317
Nuclear contribution   :      0.00000       0.00000       1.70553
                        -----------------------------------------
Total Dipole Moment    :      0.00000       0.00000      -0.93763
                        -----------------------------------------
Magnitude (a.u.)       :      0.93763
Magnitude (Debye)      :      2.38327



--------------------
Rotational spectrum 
--------------------
 
Rotational constants in cm-1:     0.000000     5.977214     5.977214 
Rotational constants in MHz :     0.000000 179192.381350 179192.381350 

 Dipole components along the rotational axes: 
x,y,z [a.u.] :    -0.937632     0.000000     0.000000 
x,y,z [Debye]:    -2.383271     0.000000     0.000000 

 

Timings for individual modules:

Sum of individual times         ...        6.238 sec (=   0.104 min)
GTO integral calculation        ...        2.531 sec (=   0.042 min)  40.6 %
SCF iterations                  ...        3.707 sec (=   0.062 min)  59.4 %
                             ****ORCA TERMINATED NORMALLY****
TOTAL RUN TIME: 0 days 0 hours 0 minutes 6 seconds 833 msec
