
                                 *****************
                                 * O   R   C   A *
                                 *****************

           --- An Ab Initio, DFT and Semiempirical electronic structure package ---

                  #######################################################
                  #                        -***-                        #
                  #          Department of theory and spectroscopy      #
                  #               Directorship: Frank Neese             #
                  #        Max Planck Institute fuer Kohlenforschung    #
                  #                Kaiser Wilhelm Platz 1               #
                  #                 D-45470 Muelheim/Ruhr               #
                  #                      Germany                        #
                  #                                                     #
                  #                  All rights reserved                #
                  #                        -***-                        #
                  #######################################################


                         Program Version 4.2.0 -  RELEASE  -


 With contributions from (in alphabetic order):
   Daniel Aravena         : Magnetic Suceptibility
   Michael Atanasov       : Ab Initio Ligand Field Theory (pilot matlab implementation)
   Alexander A. Auer      : GIAO ZORA, VPT2
   Ute Becker             : Parallelization
   Giovanni Bistoni       : ED, misc. LED, open-shell LED, HFLED
   Martin Brehm           : Molecular dynamics
   Dmytro Bykov           : SCF Hessian
   Vijay G. Chilkuri      : MRCI spin determinant printing, contributions to CSF-ICE
   Dipayan Datta          : RHF DLPNO-CCSD density
   Achintya Kumar Dutta   : EOM-CC, STEOM-CC
   Dmitry Ganyushin       : Spin-Orbit,Spin-Spin,Magnetic field MRCI
   Miquel Garcia          : C-PCM Hessian, Gaussian charge scheme
   Yang Guo               : DLPNO-NEVPT2, CIM, IAO-localization
   Andreas Hansen         : Spin unrestricted coupled pair/coupled cluster methods
   Benjamin Helmich-Paris : CASSCF linear response (MC-RPA)
   Lee Huntington         : MR-EOM, pCC
   Robert Izsak           : Overlap fitted RIJCOSX, COSX-SCS-MP3, EOM
   Christian Kollmar      : KDIIS, OOCD, Brueckner-CCSD(T), CCSD density
   Simone Kossmann        : Meta GGA functionals, TD-DFT gradient, OOMP2, MP2 Hessian
   Martin Krupicka        : AUTO-CI
   Lucas Lang             : DCDCAS
   Dagmar Lenk            : GEPOL surface, SMD
   Dimitrios Liakos       : Extrapolation schemes; Compound Job, initial MDCI parallelization
   Dimitrios Manganas     : Further ROCIS development; embedding schemes
   Dimitrios Pantazis     : SARC Basis sets
   Taras Petrenko         : DFT Hessian,TD-DFT gradient, ASA, ECA, R-Raman, ABS, FL, XAS/XES, NRVS
   Peter Pinski           : DLPNO-MP2, DLPNO-MP2 Gradient
   Christoph Reimann      : Effective Core Potentials
   Marius Retegan         : Local ZFS, SOC
   Christoph Riplinger    : Optimizer, TS searches, QM/MM, DLPNO-CCSD(T), (RO)-DLPNO pert. Triples
   Tobias Risthaus        : Range-separated hybrids, TD-DFT gradient, RPA, STAB
   Michael Roemelt        : Original ROCIS implementation
   Masaaki Saitow         : Open-shell DLPNO-CCSD energy and density
   Barbara Sandhoefer     : DKH picture change effects
   Avijit Sen             : IP-ROCIS
   Kantharuban Sivalingam : CASSCF convergence, NEVPT2, FIC-MRCI
   Bernardo de Souza      : ESD, SOC TD-DFT
   Georgi Stoychev        : AutoAux, RI-MP2 NMR
   Willem Van den Heuvel  : Paramagnetic NMR
   Boris Wezisla          : Elementary symmetry handling
   Frank Wennmohs         : Technical directorship


 We gratefully acknowledge several colleagues who have allowed us to
 interface, adapt or use parts of their codes:
   Stefan Grimme, W. Hujo, H. Kruse,             : VdW corrections, initial TS optimization,
                  C. Bannwarth                     DFT functionals, gCP, sTDA/sTD-DF
   Ed Valeev, F. Pavosevic, A. Kumar             : LibInt (2-el integral package), F12 methods
   Garnet Chan, S. Sharma, J. Yang, R. Olivares  : DMRG
   Ulf Ekstrom                                   : XCFun DFT Library
   Mihaly Kallay                                 : mrcc  (arbitrary order and MRCC methods)
   Andreas Klamt, Michael Diedenhofen            : otool_cosmo (COSMO solvation model)
   Jiri Pittner, Ondrej Demel                    : Mk-CCSD
   Frank Weinhold                                : gennbo (NPA and NBO analysis)
   Christopher J. Cramer and Donald G. Truhlar   : smd solvation model
   Lars Goerigk                                  : TD-DFT with DH, B97 family of functionals
   V. Asgeirsson, H. Jonsson                     : NEB implementation
   FAccTs GmbH                                   : IRC, NEB, NEB-TS, Multilevel, MM, QM/MM, CI optimization
   S Lehtola, MJT Oliveira, MAL Marques          : LibXC Library


 Your calculation uses the libint2 library for the computation of 2-el integrals
 For citations please refer to: http://libint.valeyev.net

 Your ORCA version has been built with support for libXC version: 4.2.3
 For citations please refer to: https://tddft.org/programs/libxc/

 This ORCA versions uses:
   CBLAS   interface :  Fast vector & matrix operations
   LAPACKE interface :  Fast linear algebra routines
   SCALAPACK package :  Parallel linear algebra routines


Your calculation utilizes the atom-pairwise dispersion correction
with the Becke-Johnson damping scheme (D3BJ)
Cite in your paper:
S.Grimme, S.Ehrlich, L.Goerigk, J Comput Chem, (2011), 32, 1456–1465 
S.Grimme, J.Antony, S.Ehrlich and H.Krieg, J.Chem.Phys., 132, (2010), 154104 
   

----- Orbital basis set information -----
Your calculation utilizes the basis: aug-cc-pVTZ 
    H, B-Ne : Obtained from the ccRepo (grant-hill.group.shef.ac.uk/ccrepo) Feb. 2017
              R. A. Kendall, T. H. Dunning, Jr., R. J. Harrison, J. Chem. Phys. 96, 6796 (1992)
         He : Obtained from the ccRepo (grant-hill.group.shef.ac.uk/ccrepo) Feb. 2017
              D. E. Woon, T. H. Dunning, Jr., J. Chem. Phys. 100, 2975 (1994)
  Li-Be, Na : Obtained from the ccRepo (grant-hill.group.shef.ac.uk/ccrepo) Feb. 2017
              B. P. Prascher, D. E. Woon, K. A. Peterson, T. H. Dunning, Jr., A. K. Wilson, Theor. Chem. Acc. 128, 69 (2011)
         Mg : Obtained from the Peterson Research Group Website (tyr0.chem.wsu.edu/~kipeters) Feb. 2017
              B. P. Prascher, D. E. Woon, K. A. Peterson, T. H. Dunning, Jr., A. K. Wilson, Theor. Chem. Acc. 128, 69 (2011)
      Al-Ar : Obtained from the ccRepo (grant-hill.group.shef.ac.uk/ccrepo) Feb. 2017
              D. E. Woon, T. H. Dunning, Jr., J. Chem. Phys. 98, 1358 (1993)
      Sc-Zn : Obtained from the ccRepo (grant-hill.group.shef.ac.uk/ccrepo) Feb. 2017
              N. B. Balabanov, K. A. Peterson, J. Chem. Phys. 123, 064107 (2005)
              N. B. Balabanov, K. A. Peterson, J. Chem. Phys. 125, 074110 (2006)
      Ga-Kr : Obtained from the ccRepo (grant-hill.group.shef.ac.uk/ccrepo) Feb. 2017
              A. K. Wilson, D. E. Woon, K. A. Peterson, T. H. Dunning, Jr., J. Chem. Phys. 110, 7667 (1999)
     Ag, Au : Obtained from the Peterson Research Group Website (tyr0.chem.wsu.edu/~kipeters) Feb. 2017
              K. A. Peterson, C. Puzzarini, Theor. Chem. Acc. 114, 283 (2005)

----- AuxJ basis set information -----
Your calculation utilizes the auxiliary basis: def2/J
   F. Weigend, Phys. Chem. Chem. Phys. 8, 1057 (2006).

================================================================================
                                        WARNINGS
                       Please study these warnings very carefully!
================================================================================


WARNING: your system is open-shell and RHF/RKS was chosen
  ===> : WILL SWITCH to UHF/UKS


WARNING: The SCAN functional is very grid-sensitive!
         Use at least GRID5 and a higher intacc

INFO   : the flag for use of LIBINT has been found!

================================================================================
                                       INPUT FILE
================================================================================
NAME = 15_VCl.in
|  1> #
|  2> # 15_VCl scanfunc/aug-cc-pvtz
|  3> #
|  4> ! scanfunc d3bj aug-cc-pvtz def2/j grid4 nofinalgrid
|  5> 
|  6> *xyz 0 5
|  7>   V   0.00000000000000      0.00000000000000     -0.10591307408469
|  8>   Cl  0.00000000000000      0.00000000000000      2.10591307408469
|  9> *
| 10> 
| 11> %pal
| 12> nprocs 24
| 13> end
| 14> 
| 15> 
| 16>                          ****END OF INPUT****
================================================================================

                       ****************************
                       * Single Point Calculation *
                       ****************************

---------------------------------
CARTESIAN COORDINATES (ANGSTROEM)
---------------------------------
  V      0.000000    0.000000   -0.105913
  Cl     0.000000    0.000000    2.105913

----------------------------
CARTESIAN COORDINATES (A.U.)
----------------------------
  NO LB      ZA    FRAG     MASS         X           Y           Z
   0 V    23.0000    0    50.940    0.000000    0.000000   -0.200147
   1 Cl   17.0000    0    35.453    0.000000    0.000000    3.979599

--------------------------------
INTERNAL COORDINATES (ANGSTROEM)
--------------------------------
 V      0   0   0     0.000000000000     0.00000000     0.00000000
 Cl     1   0   0     2.211826148169     0.00000000     0.00000000

---------------------------
INTERNAL COORDINATES (A.U.)
---------------------------
 V      0   0   0     0.000000000000     0.00000000     0.00000000
 Cl     1   0   0     4.179745675886     0.00000000     0.00000000

---------------------
BASIS SET INFORMATION
---------------------
There are 2 groups of distinct atoms

 Group   1 Type V   : 116s77p23d3f2g contracted to 8s7p5d3f2g pattern {19191919191911/151515151511/77711/111/11}
 Group   2 Type Cl  : 42s17p3d2f contracted to 6s5p3d2f pattern {131313111/77111/111/11}

Atom   0V    basis set group =>   1
Atom   1Cl   basis set group =>   2
---------------------------------
AUXILIARY/J BASIS SET INFORMATION
---------------------------------
There are 2 groups of distinct atoms

 Group   1 Type V   : 19s5p5d3f3g contracted to 8s5p5d2f3g pattern {121111111/11111/11111/21/111}
 Group   2 Type Cl  : 14s5p5d2f1g contracted to 8s4p3d1f1g pattern {71111111/2111/311/2/1}

Atom   0V    basis set group =>   1
Atom   1Cl   basis set group =>   2


           ************************************************************
           *        Program running with 24 parallel MPI-processes    *
           *              working on a common directory               *
           ************************************************************
------------------------------------------------------------------------------
                           ORCA GTO INTEGRAL CALCULATION
                           -- RI-GTO INTEGRALS CHOSEN --
------------------------------------------------------------------------------

                         BASIS SET STATISTICS AND STARTUP INFO

Gaussian basis set:
 # of primitive gaussian shells          ...  285
 # of primitive gaussian functions       ...  623
 # of contracted shells                  ...   41
 # of contracted basis functions         ...  143
 Highest angular momentum                ...    4
 Maximum contraction depth               ...   19
Auxiliary gaussian basis set:
 # of primitive gaussian shells          ...   62
 # of primitive gaussian functions       ...  184
 # of contracted shells                  ...   40
 # of contracted aux-basis functions     ...  140
 Highest angular momentum                ...    4
 Maximum contraction depth               ...   12
Ratio of auxiliary to basis functions    ...  0.98
Integral package used                  ... LIBINT
 One Electron integrals                  ... done
 Ordering auxiliary basis shells         ... done
 Integral threshhold             Thresh  ...  1.000e-10
 Primitive cut-off               TCut    ...  1.000e-11
 Pre-screening matrix                    ... done
 Shell pair data                         ... 
 Ordering of the shell pairs             ... done (   0.000 sec) 861 of 861 pairs
 Determination of significant pairs      ... done (   0.000 sec)
 Creation of shell pair data             ... done (   0.001 sec)
 Storage of shell pair data              ... done (   0.004 sec)
 Shell pair data done in (   0.005 sec)
 Computing two index integrals           ... done
 Cholesky decomposition of the V-matrix  ... done


Timings:
 Total evaluation time                   ...   2.659 sec (  0.044 min)
 One electron matrix time                ...   0.046 sec (  0.001 min) =  1.7%
 Schwartz matrix evaluation time         ...   2.568 sec (  0.043 min) = 96.6%
 Two index repulsion integral time       ...   0.001 sec (  0.000 min) =  0.1%
 Cholesky decomposition of V             ...   0.001 sec (  0.000 min) =  0.0%
 Three index repulsion integral time     ...   0.000 sec (  0.000 min) =  0.0%



           ************************************************************
           *        Program running with 24 parallel MPI-processes    *
           *              working on a common directory               *
           ************************************************************
-------------------------------------------------------------------------------
                                 ORCA SCF
-------------------------------------------------------------------------------

------------
SCF SETTINGS
------------
Hamiltonian:
 Density Functional     Method          .... DFT(GTOs)
 Exchange Functional    Exchange        .... SCAN
 Correlation Functional Correlation     .... SCAN
 Gradients option       PostSCFGGA      .... off
   Density functional embedding theory  .... OFF
   NL short-range parameter             ....  6.400000
 RI-approximation to the Coulomb term is turned on
   Number of auxiliary basis functions  .... 140


General Settings:
 Integral files         IntName         .... 15_VCl
 Hartree-Fock type      HFTyp           .... UHF
 Total Charge           Charge          ....    0
 Multiplicity           Mult            ....    5
 Number of Electrons    NEL             ....   40
 Basis Dimension        Dim             ....  143
 Nuclear Repulsion      ENuc            ....     93.5463615061 Eh

Convergence Acceleration:
 DIIS                   CNVDIIS         .... on
   Start iteration      DIISMaxIt       ....    12
   Startup error        DIISStart       ....  0.200000
   # of expansion vecs  DIISMaxEq       ....     5
   Bias factor          DIISBfac        ....   1.050
   Max. coefficient     DIISMaxC        ....  10.000
 Newton-Raphson         CNVNR           .... off
 SOSCF                  CNVSOSCF        .... off
 Level Shifting         CNVShift        .... on
   Level shift para.    LevelShift      ....    0.2500
   Turn off err/grad.   ShiftErr        ....    0.0010
 Zerner damping         CNVZerner       .... off
 Static damping         CNVDamp         .... on
   Fraction old density DampFac         ....    0.7000
   Max. Damping (<1)    DampMax         ....    0.9800
   Min. Damping (>=0)   DampMin         ....    0.0000
   Turn off err/grad.   DampErr         ....    0.1000
 Fernandez-Rico         CNVRico         .... off

SCF Procedure:
 Maximum # iterations   MaxIter         ....   125
 SCF integral mode      SCFMode         .... Direct
   Integral package                     .... LIBINT
 Reset frequency        DirectResetFreq ....    20
 Integral Threshold     Thresh          ....  1.000e-10 Eh
 Primitive CutOff       TCut            ....  1.000e-11 Eh

Convergence Tolerance:
 Convergence Check Mode ConvCheckMode   .... Total+1el-Energy
 Convergence forced     ConvForced      .... 0
 Energy Change          TolE            ....  1.000e-06 Eh
 1-El. energy change                    ....  1.000e-03 Eh
 DIIS Error             TolErr          ....  1.000e-06


Diagonalization of the overlap matrix:
Smallest eigenvalue                        ... 6.367e-05
Time for diagonalization                   ...    0.006 sec
Threshold for overlap eigenvalues          ... 1.000e-08
Number of eigenvalues below threshold      ... 0
Time for construction of square roots      ...    0.003 sec
Total time needed                          ...    0.009 sec

-------------------
DFT GRID GENERATION
-------------------

General Integration Accuracy     IntAcc      ...  4.670
Radial Grid Type                 RadialGrid  ... Gauss-Chebyshev
Angular Grid (max. acc.)         AngularGrid ... Lebedev-302
Angular grid pruning method      GridPruning ... 3 (G Style)
Weight generation scheme         WeightScheme... Becke
Basis function cutoff            BFCut       ...    1.0000e-10
Integration weight cutoff        WCut        ...    1.0000e-14
Grids for H and He will be reduced by one unit

# of grid points (after initial pruning)     ...  16402 (   0.0 sec)
# of grid points (after weights+screening)   ...  16375 (   0.0 sec)
nearest neighbour list constructed           ...    0.0 sec
Grid point re-assignment to atoms done       ...    0.0 sec
Grid point division into batches done        ...    0.1 sec
Reduced shell lists constructed in    0.1 sec

Total number of grid points                  ...    16375
Total number of batches                      ...      257
Average number of points per batch           ...       63
Average number of grid points per atom       ...     8188
Average number of shells per batch           ...    16.83 (41.06%)
Average number of basis functions per batch  ...    44.50 (31.12%)
Average number of large shells per batch     ...     9.17 (54.46%)
Average number of large basis fcns per batch ...    24.83 (55.81%)
Maximum spatial batch extension              ...  24.49, 24.19, 18.13 au
Average spatial batch extension              ...   0.85,  0.83,  0.66 au

Time for grid setup =    0.162 sec

------------------------------
INITIAL GUESS: MODEL POTENTIAL
------------------------------
Loading Hartree-Fock densities                     ... done
Calculating cut-offs                               ... done
Setting up the integral package                    ... done
Initializing the effective Hamiltonian             ... done
Starting the Coulomb interaction                   ... done (   0.0 sec)
Reading the grid                                   ... done
Mapping shells                                     ... done
Starting the XC term evaluation                    ... done (   0.0 sec)
  promolecular density results
     # of electrons  =     39.999998021
     EX              =    -80.369890140
     EC              =     -0.692924724
     EX+EC           =    -81.062814864
Transforming the Hamiltonian                       ... done (   0.0 sec)
Diagonalizing the Hamiltonian                      ... done (   0.0 sec)
Back transforming the eigenvectors                 ... done (   0.0 sec)
Now organizing SCF variables                       ... done
                      ------------------
                      INITIAL GUESS DONE (   0.3 sec)
                      ------------------
--------------
SCF ITERATIONS
--------------
ITER       Energy         Delta-E        Max-DP      RMS-DP      [F,P]     Damp
               ***  Starting incremental Fock matrix formation  ***
  0  -1403.9191231329   0.000000000000 0.56631142  0.01017019  0.3835449 0.7000
  1  -1404.1270069650  -0.207883832174 0.36416268  0.00652581  0.1012623 0.7000
                               ***Turning on DIIS***
  2  -1404.1586522616  -0.031645296513 0.77220239  0.01159578  0.0591921 0.0000
  3  -1404.2665745222  -0.107922260656 0.08966677  0.00193254  0.0707254 0.0000
  4  -1404.2963574293  -0.029782907094 0.14689271  0.00274821  0.0607123 0.0000
  5  -1404.3077995040  -0.011442074657 0.03960228  0.00075806  0.0159455 0.0000
  6  -1404.3101281790  -0.002328675057 0.02339853  0.00029725  0.0076157 0.0000
  7  -1404.3110604470  -0.000932267995 0.01756616  0.00016554  0.0059615 0.0000
  8  -1404.3115844483  -0.000524001290 0.01379298  0.00016297  0.0048964 0.0000
  9  -1404.3119173883  -0.000332940037 0.01244026  0.00010281  0.0042261 0.0000
 10  -1404.3121272840  -0.000209895705 0.00944671  0.00014480  0.0031541 0.0000
 11  -1404.3122443795  -0.000117095437 0.00804603  0.00006925  0.0028398 0.0000
 12  -1404.3123278617  -0.000083482167 0.00650272  0.00006372  0.0021671 0.0000
 13  -1404.3123729592  -0.000045097531 0.00537912  0.00004175  0.0018338 0.0000
 14  -1404.3124072655  -0.000034306287 0.00410454  0.00004492  0.0013640 0.0000
 15  -1404.3124232177  -0.000015952221 0.00347367  0.00002893  0.0012724 0.0000
 16  -1404.3124381385  -0.000014920839 0.01244135  0.00010046  0.0008924 0.0000
 17  -1404.3124577258  -0.000019587311 0.00079838  0.00001075  0.0005023 0.0000
 18  -1404.3124585270  -0.000000801170 0.00055483  0.00000555  0.0001688 0.0000
                 **** Energy Check signals convergence ****

               *****************************************************
               *                     SUCCESS                       *
               *           SCF CONVERGED AFTER  19 CYCLES          *
               *****************************************************


----------------
TOTAL SCF ENERGY
----------------

Total Energy       :        -1404.31245819 Eh          -38213.28471 eV

Components:
Nuclear Repulsion  :           93.54636151 Eh            2545.52591 eV
Electronic Energy  :        -1497.85881970 Eh          -40758.81062 eV
One Electron Energy:        -2119.29716411 Eh          -57669.00767 eV
Two Electron Energy:          621.43834442 Eh           16910.19705 eV

Virial components:
Potential Energy   :        -2806.46560361 Eh          -76367.81154 eV
Kinetic Energy     :         1402.15314542 Eh           38154.52683 eV
Virial Ratio       :            2.00154000


DFT components:
N(Alpha)           :       21.999997879467 electrons
N(Beta)            :       17.999997277926 electrons
N(Total)           :       39.999995157393 electrons
E(X)               :      -72.123130814909 Eh       
E(C)               :       -1.603263217328 Eh       
E(XC)              :      -73.726394032237 Eh       
DFET-embed. en.    :        0.000000000000 Eh       

---------------
SCF CONVERGENCE
---------------

  Last Energy change         ...    3.3781e-07  Tolerance :   1.0000e-06
  Last MAX-Density change    ...    3.4463e-04  Tolerance :   1.0000e-05
  Last RMS-Density change    ...    3.3695e-06  Tolerance :   1.0000e-06
  Last DIIS Error            ...    5.4379e-05  Tolerance :   1.0000e-06

             **** THE GBW FILE WAS UPDATED (15_VCl.gbw) ****
             **** DENSITY FILE WAS UPDATED (15_VCl.scfp) ****
             **** ENERGY FILE WAS UPDATED (15_VCl.en.tmp) ****
----------------------
UHF SPIN CONTAMINATION
----------------------

Warning: in a DFT calculation there is little theoretical justification to 
         calculate <S**2> as in Hartree-Fock theory. We will do it anyways
         but you should keep in mind that the values have only limited relevance

Expectation value of <S**2>     :     6.011806
Ideal value S*(S+1) for S=2.0   :     6.000000
Deviation                       :     0.011806

             **** THE GBW FILE WAS UPDATED (15_VCl.gbw) ****
             **** DENSITY FILE WAS UPDATED (15_VCl.scfp) ****
----------------
ORBITAL ENERGIES
----------------
                 SPIN UP ORBITALS
  NO   OCC          E(Eh)            E(eV) 
   0   1.0000    -196.429434     -5345.1166 
   1   1.0000    -101.236397     -2754.7824 
   2   1.0000     -22.063326      -600.3736 
   3   1.0000     -18.575501      -505.4651 
   4   1.0000     -18.575501      -505.4651 
   5   1.0000     -18.570810      -505.3374 
   6   1.0000      -9.291810      -252.8430 
   7   1.0000      -7.047134      -191.7623 
   8   1.0000      -7.045700      -191.7232 
   9   1.0000      -7.045700      -191.7232 
  10   1.0000      -2.617734       -71.2322 
  11   1.0000      -1.652191       -44.9584 
  12   1.0000      -1.652191       -44.9584 
  13   1.0000      -1.651178       -44.9308 
  14   1.0000      -0.730841       -19.8872 
  15   1.0000      -0.314318        -8.5530 
  16   1.0000      -0.287226        -7.8158 
  17   1.0000      -0.287226        -7.8158 
  18   1.0000      -0.229598        -6.2477 
  19   1.0000      -0.197754        -5.3812 
  20   1.0000      -0.197754        -5.3812 
  21   1.0000      -0.182931        -4.9778 
  22   0.0000      -0.142815        -3.8862 
  23   0.0000      -0.114432        -3.1138 
  24   0.0000      -0.048968        -1.3325 
  25   0.0000      -0.048968        -1.3325 
  26   0.0000       0.013419         0.3652 
  27   0.0000       0.016671         0.4536 
  28   0.0000       0.031825         0.8660 
  29   0.0000       0.031826         0.8660 
  30   0.0000       0.054497         1.4829 
  31   0.0000       0.059301         1.6137 
  32   0.0000       0.059505         1.6192 
  33   0.0000       0.060629         1.6498 
  34   0.0000       0.060630         1.6498 
  35   0.0000       0.066703         1.8151 
  36   0.0000       0.098052         2.6681 
  37   0.0000       0.137131         3.7315 
  38   0.0000       0.137131         3.7315 
  39   0.0000       0.139973         3.8088 
  40   0.0000       0.163880         4.4594 
  41   0.0000       0.163881         4.4594 
  42   0.0000       0.165845         4.5129 
  43   0.0000       0.166740         4.5372 
  44   0.0000       0.175091         4.7645 
  45   0.0000       0.181875         4.9491 
  46   0.0000       0.181875         4.9491 
  47   0.0000       0.227278         6.1846 
  48   0.0000       0.257540         7.0080 
  49   0.0000       0.257791         7.0148 
  50   0.0000       0.290607         7.9078 
  51   0.0000       0.343111         9.3365 
  52   0.0000       0.343111         9.3365 
  53   0.0000       0.380314        10.3489 
  54   0.0000       0.380314        10.3489 
  55   0.0000       0.380318        10.3490 
  56   0.0000       0.431481        11.7412 
  57   0.0000       0.459113        12.4931 
  58   0.0000       0.459546        12.5049 
  59   0.0000       0.493513        13.4292 
  60   0.0000       0.493513        13.4292 
  61   0.0000       0.552419        15.0321 
  62   0.0000       0.577324        15.7098 
  63   0.0000       0.577325        15.7098 
  64   0.0000       0.618934        16.8420 
  65   0.0000       0.618934        16.8420 
  66   0.0000       0.653955        17.7950 
  67   0.0000       0.685188        18.6449 
  68   0.0000       0.697437        18.9782 
  69   0.0000       0.774043        21.0628 
  70   0.0000       0.774936        21.0871 
  71   0.0000       0.785659        21.3789 
  72   0.0000       0.785659        21.3789 
  73   0.0000       0.805678        21.9236 
  74   0.0000       0.845336        23.0028 
  75   0.0000       0.845336        23.0028 
  76   0.0000       0.849502        23.1161 
  77   0.0000       0.910818        24.7846 
  78   0.0000       1.054373        28.6909 
  79   0.0000       1.054373        28.6909 
  80   0.0000       1.135101        30.8877 
  81   0.0000       1.136077        30.9142 
  82   0.0000       1.280444        34.8427 
  83   0.0000       1.280444        34.8427 
  84   0.0000       1.319100        35.8945 
  85   0.0000       1.338516        36.4229 
  86   0.0000       1.338516        36.4229 
  87   0.0000       1.357586        36.9418 
  88   0.0000       1.371513        37.3208 
  89   0.0000       1.457680        39.6655 
  90   0.0000       1.616487        43.9868 
  91   0.0000       1.621697        44.1286 
  92   0.0000       1.621697        44.1286 
  93   0.0000       1.622002        44.1369 
  94   0.0000       1.644711        44.7549 
  95   0.0000       1.644711        44.7549 
  96   0.0000       1.836887        49.9842 
  97   0.0000       1.836906        49.9848 
  98   0.0000       1.878126        51.1064 
  99   0.0000       1.932189        52.5775 
 100   0.0000       1.932189        52.5775 
 101   0.0000       1.973156        53.6923 
 102   0.0000       2.108125        57.3650 
 103   0.0000       2.156484        58.6809 
 104   0.0000       2.156484        58.6809 
 105   0.0000       2.303451        62.6801 
 106   0.0000       2.303626        62.6848 
 107   0.0000       2.401549        65.3495 
 108   0.0000       2.425232        65.9939 
 109   0.0000       2.425232        65.9939 
 110   0.0000       2.531996        68.8991 
 111   0.0000       2.609017        70.9950 
 112   0.0000       2.609017        70.9950 
 113   0.0000       2.714128        73.8552 
 114   0.0000       2.765400        75.2504 
 115   0.0000       2.853064        77.6358 
 116   0.0000       2.853064        77.6358 
 117   0.0000       2.929278        79.7097 
 118   0.0000       2.930906        79.7540 
 119   0.0000       2.932693        79.8026 
 120   0.0000       2.932693        79.8026 
 121   0.0000       3.028699        82.4151 
 122   0.0000       3.072941        83.6190 
 123   0.0000       3.072941        83.6190 
 124   0.0000       3.280755        89.2739 
 125   0.0000       3.662562        99.6634 
 126   0.0000       4.806509       130.7918 
 127   0.0000       4.811794       130.9356 
 128   0.0000       4.811794       130.9356 
 129   0.0000       4.815186       131.0279 
 130   0.0000       4.943361       134.5157 
 131   0.0000       4.943361       134.5157 
 132   0.0000       5.177869       140.8970 
 133   0.0000       5.183432       141.0483 
 134   0.0000       5.188922       141.1978 
 135   0.0000       5.188922       141.1978 
 136   0.0000       5.255731       143.0157 
 137   0.0000       5.265178       143.2728 
 138   0.0000       5.294297       144.0652 
 139   0.0000       5.382163       146.4561 
 140   0.0000       5.382163       146.4561 
 141   0.0000       5.548474       150.9817 
 142   0.0000       6.391455       173.9203 

                 SPIN DOWN ORBITALS
  NO   OCC          E(Eh)            E(eV) 
   0   1.0000    -196.431152     -5345.1634 
   1   1.0000    -101.236497     -2754.7851 
   2   1.0000     -22.026973      -599.3844 
   3   1.0000     -18.546970      -504.6887 
   4   1.0000     -18.546970      -504.6887 
   5   1.0000     -18.539284      -504.4796 
   6   1.0000      -9.291649      -252.8386 
   7   1.0000      -7.047863      -191.7821 
   8   1.0000      -7.045366      -191.7142 
   9   1.0000      -7.045366      -191.7142 
  10   1.0000      -2.471338       -67.2485 
  11   1.0000      -1.517994       -41.3067 
  12   1.0000      -1.517994       -41.3067 
  13   1.0000      -1.499947       -40.8156 
  14   1.0000      -0.730617       -19.8811 
  15   1.0000      -0.306963        -8.3529 
  16   1.0000      -0.275337        -7.4923 
  17   1.0000      -0.275337        -7.4923 
  18   0.0000      -0.085100        -2.3157 
  19   0.0000      -0.077435        -2.1071 
  20   0.0000      -0.050161        -1.3650 
  21   0.0000      -0.046368        -1.2617 
  22   0.0000      -0.038291        -1.0420 
  23   0.0000      -0.038291        -1.0420 
  24   0.0000      -0.005741        -0.1562 
  25   0.0000      -0.005741        -0.1562 
  26   0.0000       0.012961         0.3527 
  27   0.0000       0.017882         0.4866 
  28   0.0000       0.040519         1.1026 
  29   0.0000       0.040519         1.1026 
  30   0.0000       0.042751         1.1633 
  31   0.0000       0.044811         1.2194 
  32   0.0000       0.049116         1.3365 
  33   0.0000       0.049117         1.3365 
  34   0.0000       0.050018         1.3611 
  35   0.0000       0.069537         1.8922 
  36   0.0000       0.099388         2.7045 
  37   0.0000       0.141626         3.8538 
  38   0.0000       0.145147         3.9497 
  39   0.0000       0.145147         3.9497 
  40   0.0000       0.155735         4.2378 
  41   0.0000       0.155735         4.2378 
  42   0.0000       0.179389         4.8814 
  43   0.0000       0.182062         4.9541 
  44   0.0000       0.185120         5.0374 
  45   0.0000       0.197252         5.3675 
  46   0.0000       0.197252         5.3675 
  47   0.0000       0.230983         6.2854 
  48   0.0000       0.266300         7.2464 
  49   0.0000       0.266459         7.2507 
  50   0.0000       0.304936         8.2977 
  51   0.0000       0.352752         9.5989 
  52   0.0000       0.352752         9.5989 
  53   0.0000       0.385739        10.4965 
  54   0.0000       0.401611        10.9284 
  55   0.0000       0.401611        10.9284 
  56   0.0000       0.467194        12.7130 
  57   0.0000       0.473961        12.8971 
  58   0.0000       0.476722        12.9723 
  59   0.0000       0.496128        13.5003 
  60   0.0000       0.496128        13.5003 
  61   0.0000       0.556469        15.1423 
  62   0.0000       0.622510        16.9394 
  63   0.0000       0.622510        16.9394 
  64   0.0000       0.638031        17.3617 
  65   0.0000       0.638031        17.3617 
  66   0.0000       0.720213        19.5980 
  67   0.0000       0.722486        19.6599 
  68   0.0000       0.734607        19.9897 
  69   0.0000       0.783425        21.3181 
  70   0.0000       0.784872        21.3575 
  71   0.0000       0.808080        21.9890 
  72   0.0000       0.808080        21.9890 
  73   0.0000       0.824582        22.4380 
  74   0.0000       0.878033        23.8925 
  75   0.0000       0.891492        24.2587 
  76   0.0000       0.891492        24.2587 
  77   0.0000       0.927122        25.2283 
  78   0.0000       1.070316        29.1248 
  79   0.0000       1.070316        29.1248 
  80   0.0000       1.153964        31.4010 
  81   0.0000       1.154600        31.4183 
  82   0.0000       1.327705        36.1287 
  83   0.0000       1.327705        36.1287 
  84   0.0000       1.346420        36.6379 
  85   0.0000       1.441533        39.2261 
  86   0.0000       1.441533        39.2261 
  87   0.0000       1.480649        40.2905 
  88   0.0000       1.485245        40.4156 
  89   0.0000       1.521897        41.4129 
  90   0.0000       1.681581        45.7581 
  91   0.0000       1.683118        45.8000 
  92   0.0000       1.693856        46.0922 
  93   0.0000       1.693856        46.0922 
  94   0.0000       1.717437        46.7338 
  95   0.0000       1.717437        46.7338 
  96   0.0000       1.896303        51.6010 
  97   0.0000       1.898557        51.6624 
  98   0.0000       1.912251        52.0350 
  99   0.0000       1.992342        54.2144 
 100   0.0000       1.992342        54.2144 
 101   0.0000       2.030391        55.2497 
 102   0.0000       2.216900        60.3249 
 103   0.0000       2.246405        61.1278 
 104   0.0000       2.246405        61.1278 
 105   0.0000       2.314591        62.9832 
 106   0.0000       2.314750        62.9875 
 107   0.0000       2.436185        66.2920 
 108   0.0000       2.436185        66.2920 
 109   0.0000       2.447503        66.5999 
 110   0.0000       2.570742        69.9535 
 111   0.0000       2.636797        71.7509 
 112   0.0000       2.636797        71.7509 
 113   0.0000       2.821414        76.7746 
 114   0.0000       2.849620        77.5421 
 115   0.0000       2.867090        78.0175 
 116   0.0000       2.867090        78.0175 
 117   0.0000       2.946918        80.1897 
 118   0.0000       2.948551        80.2342 
 119   0.0000       3.040745        82.7429 
 120   0.0000       3.040745        82.7429 
 121   0.0000       3.048467        82.9530 
 122   0.0000       3.108473        84.5859 
 123   0.0000       3.108473        84.5859 
 124   0.0000       3.345625        91.0391 
 125   0.0000       3.721477       101.2665 
 126   0.0000       4.934244       134.2676 
 127   0.0000       4.934244       134.2676 
 128   0.0000       4.969338       135.2226 
 129   0.0000       4.989663       135.7756 
 130   0.0000       5.092015       138.5608 
 131   0.0000       5.092015       138.5608 
 132   0.0000       5.349872       145.5774 
 133   0.0000       5.350704       145.6001 
 134   0.0000       5.371866       146.1759 
 135   0.0000       5.371866       146.1759 
 136   0.0000       5.434356       147.8763 
 137   0.0000       5.443803       148.1334 
 138   0.0000       5.450597       148.3183 
 139   0.0000       5.541661       150.7962 
 140   0.0000       5.541661       150.7963 
 141   0.0000       5.671056       154.3173 
 142   0.0000       6.404514       174.2757 

                    ********************************
                    * MULLIKEN POPULATION ANALYSIS *
                    ********************************

--------------------------------------------
MULLIKEN ATOMIC CHARGES AND SPIN POPULATIONS
--------------------------------------------
   0 V :    0.387828    4.026060
   1 Cl:   -0.387828   -0.026060
Sum of atomic charges         :   -0.0000000
Sum of atomic spin populations:    4.0000000

-----------------------------------------------------
MULLIKEN REDUCED ORBITAL CHARGES AND SPIN POPULATIONS
-----------------------------------------------------
CHARGE
  0 V s       :     6.825134  s :     6.825134
      pz      :     4.137574  p :    12.253764
      px      :     4.058095
      py      :     4.058095
      dz2     :     0.466610  d :     3.507530
      dxz     :     1.020952
      dyz     :     1.020952
      dx2y2   :     0.999016
      dxy     :     0.000000
      f0      :     0.007004  f :     0.021884
      f+1     :     0.007283
      f-1     :     0.007283
      f+2     :     0.000104
      f-2     :     0.000000
      f+3     :     0.000105
      f-3     :     0.000105
      g0      :     0.001085  g :     0.003861
      g+1     :     0.001322
      g-1     :     0.001322
      g+2     :     0.000004
      g-2     :     0.000000
      g+3     :     0.000013
      g-3     :     0.000013
      g+4     :     0.000103
      g-4     :     0.000000
  1 Cls       :     5.930592  s :     5.930592
      pz      :     3.628233  p :    11.431883
      px      :     3.901825
      py      :     3.901825
      dz2     :     0.003432  d :     0.023237
      dxz     :     0.009561
      dyz     :     0.009561
      dx2y2   :     0.000683
      dxy     :     0.000000
      f0      :     0.000234  f :     0.002116
      f+1     :     0.000844
      f-1     :     0.000844
      f+2     :     0.000193
      f-2     :     0.000000
      f+3     :    -0.000000
      f-3     :    -0.000000

SPIN
  0 V s       :     0.718163  s :     0.718163
      pz      :     0.065581  p :     0.132097
      px      :     0.033258
      py      :     0.033258
      dz2     :     0.292037  d :     3.176911
      dxz     :     0.942929
      dyz     :     0.942929
      dx2y2   :     0.999016
      dxy     :     0.000000
      f0      :    -0.001189  f :    -0.000953
      f+1     :     0.000004
      f-1     :     0.000004
      f+2     :     0.000104
      f-2     :     0.000000
      f+3     :     0.000062
      f-3     :     0.000062
      g0      :    -0.000181  g :    -0.000157
      g+1     :    -0.000047
      g-1     :    -0.000047
      g+2     :     0.000004
      g-2     :     0.000000
      g+3     :     0.000012
      g-3     :     0.000012
      g+4     :     0.000088
      g-4     :     0.000000
  1 Cls       :     0.016792  s :     0.016792
      pz      :    -0.089419  p :    -0.048028
      px      :     0.020696
      py      :     0.020696
      dz2     :    -0.001492  d :     0.005453
      dxz     :     0.003131
      dyz     :     0.003131
      dx2y2   :     0.000683
      dxy     :     0.000000
      f0      :    -0.000380  f :    -0.000278
      f+1     :    -0.000045
      f-1     :    -0.000045
      f+2     :     0.000193
      f-2     :     0.000000
      f+3     :    -0.000000
      f-3     :    -0.000000


                     *******************************
                     * LOEWDIN POPULATION ANALYSIS *
                     *******************************

-------------------------------------------
LOEWDIN ATOMIC CHARGES AND SPIN POPULATIONS
-------------------------------------------
   0 V :   -0.003210    3.836640
   1 Cl:    0.003210    0.163360

----------------------------------------------------
LOEWDIN REDUCED ORBITAL CHARGES AND SPIN POPULATIONS
----------------------------------------------------
CHARGE
  0 V s       :     6.611492  s :     6.611492
      pz      :     4.209963  p :    12.369559
      px      :     4.079798
      py      :     4.079798
      dz2     :     0.602308  d :     3.689406
      dxz     :     1.047076
      dyz     :     1.047076
      dx2y2   :     0.992945
      dxy     :     0.000000
      f0      :     0.103392  f :     0.288154
      f+1     :     0.092059
      f-1     :     0.092059
      f+2     :     0.000435
      f-2     :     0.000000
      f+3     :     0.000105
      f-3     :     0.000105
      g0      :     0.016525  g :     0.044599
      g+1     :     0.013962
      g-1     :     0.013962
      g+2     :     0.000022
      g-2     :     0.000000
      g+3     :     0.000013
      g-3     :     0.000013
      g+4     :     0.000103
      g-4     :     0.000000
  1 Cls       :     5.577583  s :     5.577583
      pz      :     3.717886  p :    11.116677
      px      :     3.699396
      py      :     3.699396
      dz2     :     0.114898  d :     0.208082
      dxz     :     0.044807
      dyz     :     0.044807
      dx2y2   :     0.003571
      dxy     :     0.000000
      f0      :     0.045850  f :     0.094448
      f+1     :     0.022785
      f-1     :     0.022785
      f+2     :     0.003028
      f-2     :     0.000000
      f+3     :     0.000000
      f-3     :     0.000000

SPIN
  0 V s       :     0.623579  s :     0.623579
      pz      :     0.054915  p :     0.153141
      px      :     0.049113
      py      :     0.049113
      dz2     :     0.279611  d :     3.049949
      dxz     :     0.888696
      dyz     :     0.888696
      dx2y2   :     0.992945
      dxy     :     0.000000
      f0      :    -0.000582  f :     0.009142
      f+1     :     0.004583
      f-1     :     0.004583
      f+2     :     0.000435
      f-2     :     0.000000
      f+3     :     0.000062
      f-3     :     0.000062
      g0      :    -0.000559  g :     0.000829
      g+1     :     0.000626
      g-1     :     0.000626
      g+2     :     0.000022
      g-2     :     0.000000
      g+3     :     0.000012
      g-3     :     0.000012
      g+4     :     0.000088
      g-4     :     0.000000
  1 Cls       :     0.025614  s :     0.025614
      pz      :     0.012065  p :     0.044526
      px      :     0.016230
      py      :     0.016230
      dz2     :     0.004900  d :     0.061149
      dxz     :     0.026339
      dyz     :     0.026339
      dx2y2   :     0.003571
      dxy     :     0.000000
      f0      :     0.000368  f :     0.032072
      f+1     :     0.014338
      f-1     :     0.014338
      f+2     :     0.003028
      f-2     :     0.000000
      f+3     :     0.000000
      f-3     :     0.000000


                      *****************************
                      * MAYER POPULATION ANALYSIS *
                      *****************************

  NA   - Mulliken gross atomic population
  ZA   - Total nuclear charge
  QA   - Mulliken gross atomic charge
  VA   - Mayer's total valence
  BVA  - Mayer's bonded valence
  FA   - Mayer's free valence

  ATOM       NA         ZA         QA         VA         BVA        FA
  0 V     22.6122    23.0000     0.3878     4.9463     1.1070     3.8393
  1 Cl    17.3878    17.0000    -0.3878     1.1216     1.1070     0.0146

  Mayer bond orders larger than 0.100000
B(  0-V ,  1-Cl) :   1.1070 

-------
TIMINGS
-------

Total SCF time: 0 days 0 hours 0 min 4 sec 

Total time                  ....       4.402 sec
Sum of individual times     ....       4.246 sec  ( 96.5%)

Fock matrix formation       ....       3.816 sec  ( 86.7%)
  Split-RI-J                ....       2.836 sec  ( 74.3% of F)
  XC integration            ....       0.803 sec  ( 21.0% of F)
    Basis function eval.    ....       0.109 sec  ( 13.6% of XC)
    Density eval.           ....       0.121 sec  ( 15.1% of XC)
    XC-Functional eval.     ....       0.021 sec  (  2.6% of XC)
    XC-Potential eval.      ....       0.349 sec  ( 43.5% of XC)
Diagonalization             ....       0.104 sec  (  2.4%)
Density matrix formation    ....       0.013 sec  (  0.3%)
Population analysis         ....       0.007 sec  (  0.2%)
Initial guess               ....       0.103 sec  (  2.3%)
Orbital Transformation      ....       0.000 sec  (  0.0%)
Orbital Orthonormalization  ....       0.000 sec  (  0.0%)
DIIS solution               ....       0.040 sec  (  0.9%)
Grid generation             ....       0.162 sec  (  3.7%)


-------------------------------------------------------------------------------
                          DFT DISPERSION CORRECTION                            
                                                                               
                              DFTD3 V3.1  Rev 1                                
                          USING Becke-Johnson damping                          
-------------------------------------------------------------------------------
The SCAN functional is recognized
Active option DFTDOPT                   ...         4   

molecular C6(AA) [au] = 995.682079 


            DFT-D V3
 parameters
 s6 scaling factor         :     1.0000 
 a1 scaling factor         :     0.5380 
 s8 scaling factor         :     0.0000 
 a2 scaling factor         :     5.4200 
 ad hoc parameters k1-k3   :    16.0000     1.3333    -4.0000 

 Edisp/kcal,au: -0.132504259497  -0.000211158956 
 E6   /kcal   :  -0.132504259 
 E8   /kcal   :  -0.000000000 
 % E8         :   0.000000000 

-------------------------   ----------------
Dispersion correction           -0.000211159
-------------------------   ----------------


-------------------------   --------------------
FINAL SINGLE POINT ENERGY     -1404.312669348161
-------------------------   --------------------


                            ***************************************
                            *     ORCA property calculations      *
                            ***************************************

                                    ---------------------
                                    Active property flags
                                    ---------------------
   (+) Dipole Moment


------------------------------------------------------------------------------
                       ORCA ELECTRIC PROPERTIES CALCULATION
------------------------------------------------------------------------------

Dipole Moment Calculation                       ... on
Quadrupole Moment Calculation                   ... off
Polarizability Calculation                      ... off
GBWName                                         ... 15_VCl.gbw
Electron density file                           ... 15_VCl.scfp
The origin for moment calculation is the CENTER OF MASS  = ( 0.000000,  0.000000  1.515091)

-------------
DIPOLE MOMENT
-------------
                                X             Y             Z
Electronic contribution:      0.00000       0.00000      -3.96403
Nuclear contribution   :      0.00000       0.00000       2.44617
                        -----------------------------------------
Total Dipole Moment    :      0.00000       0.00000      -1.51785
                        -----------------------------------------
Magnitude (a.u.)       :      1.51785
Magnitude (Debye)      :      3.85808



--------------------
Rotational spectrum 
--------------------
 
Rotational constants in cm-1:     0.000000     0.164840     0.164840 
Rotational constants in MHz :     0.000000  4941.766851  4941.766851 

 Dipole components along the rotational axes: 
x,y,z [a.u.] :    -1.517853     0.000000     0.000000 
x,y,z [Debye]:    -3.858077     0.000000     0.000000 

 

Timings for individual modules:

Sum of individual times         ...        7.990 sec (=   0.133 min)
GTO integral calculation        ...        3.241 sec (=   0.054 min)  40.6 %
SCF iterations                  ...        4.748 sec (=   0.079 min)  59.4 %
                             ****ORCA TERMINATED NORMALLY****
TOTAL RUN TIME: 0 days 0 hours 0 minutes 8 seconds 585 msec
