
                                 *****************
                                 * O   R   C   A *
                                 *****************

           --- An Ab Initio, DFT and Semiempirical electronic structure package ---

                  #######################################################
                  #                        -***-                        #
                  #          Department of theory and spectroscopy      #
                  #               Directorship: Frank Neese             #
                  #        Max Planck Institute fuer Kohlenforschung    #
                  #                Kaiser Wilhelm Platz 1               #
                  #                 D-45470 Muelheim/Ruhr               #
                  #                      Germany                        #
                  #                                                     #
                  #                  All rights reserved                #
                  #                        -***-                        #
                  #######################################################


                         Program Version 4.2.0 -  RELEASE  -


 With contributions from (in alphabetic order):
   Daniel Aravena         : Magnetic Suceptibility
   Michael Atanasov       : Ab Initio Ligand Field Theory (pilot matlab implementation)
   Alexander A. Auer      : GIAO ZORA, VPT2
   Ute Becker             : Parallelization
   Giovanni Bistoni       : ED, misc. LED, open-shell LED, HFLED
   Martin Brehm           : Molecular dynamics
   Dmytro Bykov           : SCF Hessian
   Vijay G. Chilkuri      : MRCI spin determinant printing, contributions to CSF-ICE
   Dipayan Datta          : RHF DLPNO-CCSD density
   Achintya Kumar Dutta   : EOM-CC, STEOM-CC
   Dmitry Ganyushin       : Spin-Orbit,Spin-Spin,Magnetic field MRCI
   Miquel Garcia          : C-PCM Hessian, Gaussian charge scheme
   Yang Guo               : DLPNO-NEVPT2, CIM, IAO-localization
   Andreas Hansen         : Spin unrestricted coupled pair/coupled cluster methods
   Benjamin Helmich-Paris : CASSCF linear response (MC-RPA)
   Lee Huntington         : MR-EOM, pCC
   Robert Izsak           : Overlap fitted RIJCOSX, COSX-SCS-MP3, EOM
   Christian Kollmar      : KDIIS, OOCD, Brueckner-CCSD(T), CCSD density
   Simone Kossmann        : Meta GGA functionals, TD-DFT gradient, OOMP2, MP2 Hessian
   Martin Krupicka        : AUTO-CI
   Lucas Lang             : DCDCAS
   Dagmar Lenk            : GEPOL surface, SMD
   Dimitrios Liakos       : Extrapolation schemes; Compound Job, initial MDCI parallelization
   Dimitrios Manganas     : Further ROCIS development; embedding schemes
   Dimitrios Pantazis     : SARC Basis sets
   Taras Petrenko         : DFT Hessian,TD-DFT gradient, ASA, ECA, R-Raman, ABS, FL, XAS/XES, NRVS
   Peter Pinski           : DLPNO-MP2, DLPNO-MP2 Gradient
   Christoph Reimann      : Effective Core Potentials
   Marius Retegan         : Local ZFS, SOC
   Christoph Riplinger    : Optimizer, TS searches, QM/MM, DLPNO-CCSD(T), (RO)-DLPNO pert. Triples
   Tobias Risthaus        : Range-separated hybrids, TD-DFT gradient, RPA, STAB
   Michael Roemelt        : Original ROCIS implementation
   Masaaki Saitow         : Open-shell DLPNO-CCSD energy and density
   Barbara Sandhoefer     : DKH picture change effects
   Avijit Sen             : IP-ROCIS
   Kantharuban Sivalingam : CASSCF convergence, NEVPT2, FIC-MRCI
   Bernardo de Souza      : ESD, SOC TD-DFT
   Georgi Stoychev        : AutoAux, RI-MP2 NMR
   Willem Van den Heuvel  : Paramagnetic NMR
   Boris Wezisla          : Elementary symmetry handling
   Frank Wennmohs         : Technical directorship


 We gratefully acknowledge several colleagues who have allowed us to
 interface, adapt or use parts of their codes:
   Stefan Grimme, W. Hujo, H. Kruse,             : VdW corrections, initial TS optimization,
                  C. Bannwarth                     DFT functionals, gCP, sTDA/sTD-DF
   Ed Valeev, F. Pavosevic, A. Kumar             : LibInt (2-el integral package), F12 methods
   Garnet Chan, S. Sharma, J. Yang, R. Olivares  : DMRG
   Ulf Ekstrom                                   : XCFun DFT Library
   Mihaly Kallay                                 : mrcc  (arbitrary order and MRCC methods)
   Andreas Klamt, Michael Diedenhofen            : otool_cosmo (COSMO solvation model)
   Jiri Pittner, Ondrej Demel                    : Mk-CCSD
   Frank Weinhold                                : gennbo (NPA and NBO analysis)
   Christopher J. Cramer and Donald G. Truhlar   : smd solvation model
   Lars Goerigk                                  : TD-DFT with DH, B97 family of functionals
   V. Asgeirsson, H. Jonsson                     : NEB implementation
   FAccTs GmbH                                   : IRC, NEB, NEB-TS, Multilevel, MM, QM/MM, CI optimization
   S Lehtola, MJT Oliveira, MAL Marques          : LibXC Library


 Your calculation uses the libint2 library for the computation of 2-el integrals
 For citations please refer to: http://libint.valeyev.net

 Your ORCA version has been built with support for libXC version: 4.2.3
 For citations please refer to: https://tddft.org/programs/libxc/

 This ORCA versions uses:
   CBLAS   interface :  Fast vector & matrix operations
   LAPACKE interface :  Fast linear algebra routines
   SCALAPACK package :  Parallel linear algebra routines


Your calculation utilizes the atom-pairwise dispersion correction
with the Becke-Johnson damping scheme (D3BJ)
Cite in your paper:
S.Grimme, S.Ehrlich, L.Goerigk, J Comput Chem, (2011), 32, 1456–1465 
S.Grimme, J.Antony, S.Ehrlich and H.Krieg, J.Chem.Phys., 132, (2010), 154104 
   

----- Orbital basis set information -----
Your calculation utilizes the basis: aug-cc-pVTZ 
    H, B-Ne : Obtained from the ccRepo (grant-hill.group.shef.ac.uk/ccrepo) Feb. 2017
              R. A. Kendall, T. H. Dunning, Jr., R. J. Harrison, J. Chem. Phys. 96, 6796 (1992)
         He : Obtained from the ccRepo (grant-hill.group.shef.ac.uk/ccrepo) Feb. 2017
              D. E. Woon, T. H. Dunning, Jr., J. Chem. Phys. 100, 2975 (1994)
  Li-Be, Na : Obtained from the ccRepo (grant-hill.group.shef.ac.uk/ccrepo) Feb. 2017
              B. P. Prascher, D. E. Woon, K. A. Peterson, T. H. Dunning, Jr., A. K. Wilson, Theor. Chem. Acc. 128, 69 (2011)
         Mg : Obtained from the Peterson Research Group Website (tyr0.chem.wsu.edu/~kipeters) Feb. 2017
              B. P. Prascher, D. E. Woon, K. A. Peterson, T. H. Dunning, Jr., A. K. Wilson, Theor. Chem. Acc. 128, 69 (2011)
      Al-Ar : Obtained from the ccRepo (grant-hill.group.shef.ac.uk/ccrepo) Feb. 2017
              D. E. Woon, T. H. Dunning, Jr., J. Chem. Phys. 98, 1358 (1993)
      Sc-Zn : Obtained from the ccRepo (grant-hill.group.shef.ac.uk/ccrepo) Feb. 2017
              N. B. Balabanov, K. A. Peterson, J. Chem. Phys. 123, 064107 (2005)
              N. B. Balabanov, K. A. Peterson, J. Chem. Phys. 125, 074110 (2006)
      Ga-Kr : Obtained from the ccRepo (grant-hill.group.shef.ac.uk/ccrepo) Feb. 2017
              A. K. Wilson, D. E. Woon, K. A. Peterson, T. H. Dunning, Jr., J. Chem. Phys. 110, 7667 (1999)
     Ag, Au : Obtained from the Peterson Research Group Website (tyr0.chem.wsu.edu/~kipeters) Feb. 2017
              K. A. Peterson, C. Puzzarini, Theor. Chem. Acc. 114, 283 (2005)

----- AuxJ basis set information -----
Your calculation utilizes the auxiliary basis: def2/J
   F. Weigend, Phys. Chem. Chem. Phys. 8, 1057 (2006).

================================================================================
                                        WARNINGS
                       Please study these warnings very carefully!
================================================================================


WARNING: your system is open-shell and RHF/RKS was chosen
  ===> : WILL SWITCH to UHF/UKS


WARNING: The SCAN functional is very grid-sensitive!
         Use at least GRID5 and a higher intacc

INFO   : the flag for use of LIBINT has been found!

================================================================================
                                       INPUT FILE
================================================================================
NAME = 18_VS.in
|  1> #
|  2> # 18_VS scanfunc/aug-cc-pvtz
|  3> #
|  4> ! scanfunc d3bj aug-cc-pvtz def2/j grid4 nofinalgrid
|  5> 
|  6> *xyz 0 4
|  7>   V   0.00000000000000      0.00000000000000     -0.02784157502378
|  8>   S   0.00000000000000      0.00000000000000      2.02784157502377
|  9> *
| 10> 
| 11> %pal
| 12> nprocs 24
| 13> end
| 14> 
| 15> 
| 16>                          ****END OF INPUT****
================================================================================

                       ****************************
                       * Single Point Calculation *
                       ****************************

---------------------------------
CARTESIAN COORDINATES (ANGSTROEM)
---------------------------------
  V      0.000000    0.000000   -0.027842
  S      0.000000    0.000000    2.027842

----------------------------
CARTESIAN COORDINATES (A.U.)
----------------------------
  NO LB      ZA    FRAG     MASS         X           Y           Z
   0 V    23.0000    0    50.940    0.000000    0.000000   -0.052613
   1 S    16.0000    0    32.060    0.000000    0.000000    3.832065

--------------------------------
INTERNAL COORDINATES (ANGSTROEM)
--------------------------------
 V      0   0   0     0.000000000000     0.00000000     0.00000000
 S      1   0   0     2.055683150048     0.00000000     0.00000000

---------------------------
INTERNAL COORDINATES (A.U.)
---------------------------
 V      0   0   0     0.000000000000     0.00000000     0.00000000
 S      1   0   0     3.884678171706     0.00000000     0.00000000

---------------------
BASIS SET INFORMATION
---------------------
There are 2 groups of distinct atoms

 Group   1 Type V   : 116s77p23d3f2g contracted to 8s7p5d3f2g pattern {19191919191911/151515151511/77711/111/11}
 Group   2 Type S   : 42s17p3d2f contracted to 6s5p3d2f pattern {131313111/77111/111/11}

Atom   0V    basis set group =>   1
Atom   1S    basis set group =>   2
---------------------------------
AUXILIARY/J BASIS SET INFORMATION
---------------------------------
There are 2 groups of distinct atoms

 Group   1 Type V   : 19s5p5d3f3g contracted to 8s5p5d2f3g pattern {121111111/11111/11111/21/111}
 Group   2 Type S   : 14s5p5d2f1g contracted to 8s4p3d1f1g pattern {71111111/2111/311/2/1}

Atom   0V    basis set group =>   1
Atom   1S    basis set group =>   2


           ************************************************************
           *        Program running with 24 parallel MPI-processes    *
           *              working on a common directory               *
           ************************************************************
------------------------------------------------------------------------------
                           ORCA GTO INTEGRAL CALCULATION
                           -- RI-GTO INTEGRALS CHOSEN --
------------------------------------------------------------------------------

                         BASIS SET STATISTICS AND STARTUP INFO

Gaussian basis set:
 # of primitive gaussian shells          ...  285
 # of primitive gaussian functions       ...  623
 # of contracted shells                  ...   41
 # of contracted basis functions         ...  143
 Highest angular momentum                ...    4
 Maximum contraction depth               ...   19
Auxiliary gaussian basis set:
 # of primitive gaussian shells          ...   62
 # of primitive gaussian functions       ...  184
 # of contracted shells                  ...   40
 # of contracted aux-basis functions     ...  140
 Highest angular momentum                ...    4
 Maximum contraction depth               ...   12
Ratio of auxiliary to basis functions    ...  0.98
Integral package used                  ... LIBINT
 One Electron integrals                  ... done
 Ordering auxiliary basis shells         ... done
 Integral threshhold             Thresh  ...  1.000e-10
 Primitive cut-off               TCut    ...  1.000e-11
 Pre-screening matrix                    ... done
 Shell pair data                         ... 
 Ordering of the shell pairs             ... done (   0.000 sec) 861 of 861 pairs
 Determination of significant pairs      ... done (   0.000 sec)
 Creation of shell pair data             ... done (   0.001 sec)
 Storage of shell pair data              ... done (   0.039 sec)
 Shell pair data done in (   0.040 sec)
 Computing two index integrals           ... done
 Cholesky decomposition of the V-matrix  ... done


Timings:
 Total evaluation time                   ...   2.656 sec (  0.044 min)
 One electron matrix time                ...   0.049 sec (  0.001 min) =  1.9%
 Schwartz matrix evaluation time         ...   2.536 sec (  0.042 min) = 95.5%
 Two index repulsion integral time       ...   0.001 sec (  0.000 min) =  0.0%
 Cholesky decomposition of V             ...   0.001 sec (  0.000 min) =  0.0%
 Three index repulsion integral time     ...   0.000 sec (  0.000 min) =  0.0%



           ************************************************************
           *        Program running with 24 parallel MPI-processes    *
           *              working on a common directory               *
           ************************************************************
-------------------------------------------------------------------------------
                                 ORCA SCF
-------------------------------------------------------------------------------

------------
SCF SETTINGS
------------
Hamiltonian:
 Density Functional     Method          .... DFT(GTOs)
 Exchange Functional    Exchange        .... SCAN
 Correlation Functional Correlation     .... SCAN
 Gradients option       PostSCFGGA      .... off
   Density functional embedding theory  .... OFF
   NL short-range parameter             ....  6.400000
 RI-approximation to the Coulomb term is turned on
   Number of auxiliary basis functions  .... 140


General Settings:
 Integral files         IntName         .... 18_VS
 Hartree-Fock type      HFTyp           .... UHF
 Total Charge           Charge          ....    0
 Multiplicity           Mult            ....    4
 Number of Electrons    NEL             ....   39
 Basis Dimension        Dim             ....  143
 Nuclear Repulsion      ENuc            ....     94.7311421266 Eh

Convergence Acceleration:
 DIIS                   CNVDIIS         .... on
   Start iteration      DIISMaxIt       ....    12
   Startup error        DIISStart       ....  0.200000
   # of expansion vecs  DIISMaxEq       ....     5
   Bias factor          DIISBfac        ....   1.050
   Max. coefficient     DIISMaxC        ....  10.000
 Newton-Raphson         CNVNR           .... off
 SOSCF                  CNVSOSCF        .... off
 Level Shifting         CNVShift        .... on
   Level shift para.    LevelShift      ....    0.2500
   Turn off err/grad.   ShiftErr        ....    0.0010
 Zerner damping         CNVZerner       .... off
 Static damping         CNVDamp         .... on
   Fraction old density DampFac         ....    0.7000
   Max. Damping (<1)    DampMax         ....    0.9800
   Min. Damping (>=0)   DampMin         ....    0.0000
   Turn off err/grad.   DampErr         ....    0.1000
 Fernandez-Rico         CNVRico         .... off

SCF Procedure:
 Maximum # iterations   MaxIter         ....   125
 SCF integral mode      SCFMode         .... Direct
   Integral package                     .... LIBINT
 Reset frequency        DirectResetFreq ....    20
 Integral Threshold     Thresh          ....  1.000e-10 Eh
 Primitive CutOff       TCut            ....  1.000e-11 Eh

Convergence Tolerance:
 Convergence Check Mode ConvCheckMode   .... Total+1el-Energy
 Convergence forced     ConvForced      .... 0
 Energy Change          TolE            ....  1.000e-06 Eh
 1-El. energy change                    ....  1.000e-03 Eh
 DIIS Error             TolErr          ....  1.000e-06


Diagonalization of the overlap matrix:
Smallest eigenvalue                        ... 5.303e-05
Time for diagonalization                   ...    0.006 sec
Threshold for overlap eigenvalues          ... 1.000e-08
Number of eigenvalues below threshold      ... 0
Time for construction of square roots      ...    0.002 sec
Total time needed                          ...    0.009 sec

-------------------
DFT GRID GENERATION
-------------------

General Integration Accuracy     IntAcc      ...  4.670
Radial Grid Type                 RadialGrid  ... Gauss-Chebyshev
Angular Grid (max. acc.)         AngularGrid ... Lebedev-302
Angular grid pruning method      GridPruning ... 3 (G Style)
Weight generation scheme         WeightScheme... Becke
Basis function cutoff            BFCut       ...    1.0000e-10
Integration weight cutoff        WCut        ...    1.0000e-14
Grids for H and He will be reduced by one unit

# of grid points (after initial pruning)     ...  16510 (   0.0 sec)
# of grid points (after weights+screening)   ...  16481 (   0.0 sec)
nearest neighbour list constructed           ...    0.0 sec
Grid point re-assignment to atoms done       ...    0.0 sec
Grid point division into batches done        ...    0.1 sec
Reduced shell lists constructed in    0.1 sec

Total number of grid points                  ...    16481
Total number of batches                      ...      259
Average number of points per batch           ...       63
Average number of grid points per atom       ...     8240
Average number of shells per batch           ...    17.25 (42.07%)
Average number of basis functions per batch  ...    45.92 (32.11%)
Average number of large shells per batch     ...     9.92 (57.49%)
Average number of large basis fcns per batch ...    26.75 (58.26%)
Maximum spatial batch extension              ...  24.49, 24.19, 17.58 au
Average spatial batch extension              ...   0.84,  0.83,  0.64 au

Time for grid setup =    0.162 sec

------------------------------
INITIAL GUESS: MODEL POTENTIAL
------------------------------
Loading Hartree-Fock densities                     ... done
Calculating cut-offs                               ... done
Setting up the integral package                    ... done
Initializing the effective Hamiltonian             ... done
Starting the Coulomb interaction                   ... done (   0.0 sec)
Reading the grid                                   ... done
Mapping shells                                     ... done
Starting the XC term evaluation                    ... done (   0.0 sec)
  promolecular density results
     # of electrons  =     39.000005561
     EX              =    -77.542653637
     EC              =     -0.674212109
     EX+EC           =    -78.216865746
Transforming the Hamiltonian                       ... done (   0.0 sec)
Diagonalizing the Hamiltonian                      ... done (   0.0 sec)
Back transforming the eigenvectors                 ... done (   0.0 sec)
Now organizing SCF variables                       ... done
                      ------------------
                      INITIAL GUESS DONE (   0.3 sec)
                      ------------------
--------------
SCF ITERATIONS
--------------
ITER       Energy         Delta-E        Max-DP      RMS-DP      [F,P]     Damp
               ***  Starting incremental Fock matrix formation  ***
  0  -1341.8667022599   0.000000000000 0.57815321  0.01080449  0.3812814 0.7000
  1  -1342.1079267441  -0.241224484147 0.40397007  0.00658959  0.1030761 0.7000
                               ***Turning on DIIS***
  2  -1342.1248144167  -0.016887672601 0.22093444  0.00315866  0.1332165 0.7000
  3  -1342.1820458975  -0.057231480822 0.61792173  0.00943008  0.0420353 0.0000
  4  -1342.2846393221  -0.102593424550 0.01718622  0.00019511  0.1327181 0.7000
  5  -1342.2936712329  -0.009031910812 0.02188024  0.00024606  0.1106303 0.7000
  6  -1342.3030890502  -0.009417817332 0.06827273  0.00082934  0.0838586 0.0000
  7  -1342.3219757938  -0.018886743574 0.02382434  0.00042189  0.0101350 0.0000
  8  -1342.3237231603  -0.001747366559 0.02013281  0.00031410  0.0069459 0.0000
  9  -1342.3247225515  -0.000999391206 0.01653572  0.00020279  0.0046493 0.0000
 10  -1342.3253232143  -0.000600662752 0.01287806  0.00018322  0.0041895 0.0000
 11  -1342.3257214077  -0.000398193452 0.00951150  0.00012361  0.0026567 0.0000
 12  -1342.3259605542  -0.000239146452 0.00738605  0.00008922  0.0020183 0.0000
 13  -1342.3260799704  -0.000119416254 0.00599234  0.00012643  0.0017746 0.0000
 14  -1342.3261691139  -0.000089143482 0.00348766  0.00005174  0.0011406 0.0000
 15  -1342.3262172675  -0.000048153574 0.01329761  0.00013873  0.0008411 0.0000
 16  -1342.3262720366  -0.000054769114 0.00144234  0.00002256  0.0022021 0.0000
 17  -1342.3262813690  -0.000009332381 0.00369826  0.00003904  0.0009894 0.0000
 18  -1342.3262900494  -0.000008680400 0.00389208  0.00003800  0.0002684 0.0000
 19  -1342.3262962654  -0.000006216045 0.00250749  0.00002411  0.0003152 0.0000
               *** Restarting incremental Fock matrix formation ***
                                   *** Resetting DIIS ***
 20  -1342.3263020512  -0.000005785761 0.00761932  0.00007423  0.0003237 0.0000
 21  -1342.3263124320  -0.000010380788 0.00059663  0.00001209  0.0015412 0.0000
 22  -1342.3263169364  -0.000004504371 0.00343142  0.00002768  0.0008269 0.0000
 23  -1342.3263245501  -0.000007613707 0.00527340  0.00005121  0.0003518 0.0000
 24  -1342.3263123591   0.000012190974 0.00770557  0.00007485  0.0004042 0.0000
 25  -1342.3262982859   0.000014073147 0.00693699  0.00006390  0.0003644 0.0000
 26  -1342.3262902880   0.000007997931 0.00828050  0.00007745  0.0002530 0.0000
 27  -1342.3262839182   0.000006369786 0.00884782  0.00008253  0.0002494 0.0000
 28  -1342.3262828793   0.000001038903 0.00347953  0.00003177  0.0003962 0.0000
 29  -1342.3262839741  -0.000001094732 0.00295816  0.00002899  0.0002342 0.0000
                 **** Energy Check signals convergence ****

               *****************************************************
               *                     SUCCESS                       *
               *           SCF CONVERGED AFTER  30 CYCLES          *
               *****************************************************


----------------
TOTAL SCF ENERGY
----------------

Total Energy       :        -1342.32628491 Eh          -36526.55519 eV

Components:
Nuclear Repulsion  :           94.73114213 Eh            2577.76543 eV
Electronic Energy  :        -1437.05742703 Eh          -39104.32061 eV
One Electron Energy:        -2035.38574245 Eh          -55385.66180 eV
Two Electron Energy:          598.32831542 Eh           16281.34119 eV

Virial components:
Potential Energy   :        -2682.22994213 Eh          -72987.18732 eV
Kinetic Energy     :         1339.90365723 Eh           36460.63214 eV
Virial Ratio       :            2.00180806


DFT components:
N(Alpha)           :       20.999997764950 electrons
N(Beta)            :       17.999997711610 electrons
N(Total)           :       38.999995476560 electrons
E(X)               :      -69.575222834160 Eh       
E(C)               :       -1.562800169956 Eh       
E(XC)              :      -71.138023004116 Eh       
DFET-embed. en.    :        0.000000000000 Eh       

---------------
SCF CONVERGENCE
---------------

  Last Energy change         ...   -9.3271e-07  Tolerance :   1.0000e-06
  Last MAX-Density change    ...    1.7511e-03  Tolerance :   1.0000e-05
  Last RMS-Density change    ...    1.3411e-05  Tolerance :   1.0000e-06
  Last DIIS Error            ...    2.2105e-04  Tolerance :   1.0000e-06

             **** THE GBW FILE WAS UPDATED (18_VS.gbw) ****
             **** DENSITY FILE WAS UPDATED (18_VS.scfp) ****
             **** ENERGY FILE WAS UPDATED (18_VS.en.tmp) ****
----------------------
UHF SPIN CONTAMINATION
----------------------

Warning: in a DFT calculation there is little theoretical justification to 
         calculate <S**2> as in Hartree-Fock theory. We will do it anyways
         but you should keep in mind that the values have only limited relevance

Expectation value of <S**2>     :     3.898261
Ideal value S*(S+1) for S=1.5   :     3.750000
Deviation                       :     0.148261

             **** THE GBW FILE WAS UPDATED (18_VS.gbw) ****
             **** DENSITY FILE WAS UPDATED (18_VS.scfp) ****
----------------
ORBITAL ENERGIES
----------------
                 SPIN UP ORBITALS
  NO   OCC          E(Eh)            E(eV) 
   0   1.0000    -196.451474     -5345.7164 
   1   1.0000     -88.610667     -2411.2188 
   2   1.0000     -22.086573      -601.0062 
   3   1.0000     -18.603850      -506.2365 
   4   1.0000     -18.598867      -506.1009 
   5   1.0000     -18.594045      -505.9697 
   6   1.0000      -7.818051      -212.7400 
   7   1.0000      -5.755033      -156.6024 
   8   1.0000      -5.754543      -156.5891 
   9   1.0000      -5.753621      -156.5640 
  10   1.0000      -2.626732       -71.4770 
  11   1.0000      -1.664629       -45.2968 
  12   1.0000      -1.661058       -45.1997 
  13   1.0000      -1.658328       -45.1254 
  14   1.0000      -0.594355       -16.1732 
  15   1.0000      -0.269420        -7.3313 
  16   1.0000      -0.256049        -6.9674 
  17   1.0000      -0.246973        -6.7205 
  18   1.0000      -0.244598        -6.6558 
  19   1.0000      -0.194799        -5.3007 
  20   1.0000      -0.168333        -4.5806 
  21   0.0000      -0.151409        -4.1201 
  22   0.0000      -0.148399        -4.0382 
  23   0.0000      -0.111699        -3.0395 
  24   0.0000      -0.038390        -1.0447 
  25   0.0000      -0.034997        -0.9523 
  26   0.0000       0.015285         0.4159 
  27   0.0000       0.016933         0.4608 
  28   0.0000       0.028436         0.7738 
  29   0.0000       0.033455         0.9104 
  30   0.0000       0.052930         1.4403 
  31   0.0000       0.056708         1.5431 
  32   0.0000       0.057628         1.5681 
  33   0.0000       0.059747         1.6258 
  34   0.0000       0.068515         1.8644 
  35   0.0000       0.068658         1.8683 
  36   0.0000       0.098136         2.6704 
  37   0.0000       0.121135         3.2963 
  38   0.0000       0.125921         3.4265 
  39   0.0000       0.127705         3.4750 
  40   0.0000       0.154368         4.2006 
  41   0.0000       0.160655         4.3717 
  42   0.0000       0.160981         4.3805 
  43   0.0000       0.169459         4.6112 
  44   0.0000       0.173375         4.7178 
  45   0.0000       0.182911         4.9773 
  46   0.0000       0.185906         5.0588 
  47   0.0000       0.222529         6.0553 
  48   0.0000       0.225426         6.1342 
  49   0.0000       0.226293         6.1578 
  50   0.0000       0.291295         7.9265 
  51   0.0000       0.310711         8.4549 
  52   0.0000       0.311444         8.4748 
  53   0.0000       0.361758         9.8439 
  54   0.0000       0.377935        10.2841 
  55   0.0000       0.380462        10.3529 
  56   0.0000       0.420575        11.4444 
  57   0.0000       0.458836        12.4856 
  58   0.0000       0.461012        12.5448 
  59   0.0000       0.486812        13.2468 
  60   0.0000       0.489915        13.3313 
  61   0.0000       0.546627        14.8745 
  62   0.0000       0.548381        14.9222 
  63   0.0000       0.554649        15.0928 
  64   0.0000       0.584291        15.8994 
  65   0.0000       0.591670        16.1002 
  66   0.0000       0.606832        16.5127 
  67   0.0000       0.606912        16.5149 
  68   0.0000       0.622352        16.9351 
  69   0.0000       0.649966        17.6865 
  70   0.0000       0.656580        17.8664 
  71   0.0000       0.664273        18.0758 
  72   0.0000       0.688362        18.7313 
  73   0.0000       0.743749        20.2384 
  74   0.0000       0.783165        21.3110 
  75   0.0000       0.783797        21.3282 
  76   0.0000       0.851385        23.1674 
  77   0.0000       0.851925        23.1820 
  78   0.0000       0.854317        23.2472 
  79   0.0000       0.902199        24.5501 
  80   0.0000       0.945962        25.7409 
  81   0.0000       0.951987        25.9049 
  82   0.0000       1.172827        31.9143 
  83   0.0000       1.179366        32.0922 
  84   0.0000       1.179751        32.1027 
  85   0.0000       1.335767        36.3481 
  86   0.0000       1.336517        36.3685 
  87   0.0000       1.358303        36.9613 
  88   0.0000       1.380024        37.5524 
  89   0.0000       1.484481        40.3948 
  90   0.0000       1.521705        41.4077 
  91   0.0000       1.525520        41.5115 
  92   0.0000       1.622190        44.1420 
  93   0.0000       1.623890        44.1883 
  94   0.0000       1.657570        45.1048 
  95   0.0000       1.664756        45.3003 
  96   0.0000       1.761161        47.9236 
  97   0.0000       1.788813        48.6761 
  98   0.0000       1.791651        48.7533 
  99   0.0000       1.840033        50.0698 
 100   0.0000       1.844552        50.1928 
 101   0.0000       1.897105        51.6229 
 102   0.0000       1.902457        51.7685 
 103   0.0000       1.966779        53.5188 
 104   0.0000       2.042276        55.5731 
 105   0.0000       2.043721        55.6125 
 106   0.0000       2.071453        56.3671 
 107   0.0000       2.134617        58.0859 
 108   0.0000       2.143755        58.3345 
 109   0.0000       2.187761        59.5320 
 110   0.0000       2.189221        59.5717 
 111   0.0000       2.193792        59.6961 
 112   0.0000       2.238167        60.9036 
 113   0.0000       2.247441        61.1560 
 114   0.0000       2.293813        62.4178 
 115   0.0000       2.298009        62.5320 
 116   0.0000       2.505876        68.1884 
 117   0.0000       2.581027        70.2333 
 118   0.0000       2.706979        73.6607 
 119   0.0000       2.711433        73.7818 
 120   0.0000       2.712355        73.8069 
 121   0.0000       2.764279        75.2198 
 122   0.0000       3.027807        82.3908 
 123   0.0000       3.048148        82.9443 
 124   0.0000       3.405474        92.6677 
 125   0.0000       3.683412       100.2307 
 126   0.0000       4.791543       130.3845 
 127   0.0000       4.800870       130.6383 
 128   0.0000       4.815016       131.0232 
 129   0.0000       4.834038       131.5409 
 130   0.0000       5.009748       136.3222 
 131   0.0000       5.018887       136.5709 
 132   0.0000       5.161604       140.4544 
 133   0.0000       5.170640       140.7003 
 134   0.0000       5.192074       141.2835 
 135   0.0000       5.195910       141.3879 
 136   0.0000       5.270048       143.4053 
 137   0.0000       5.286616       143.8561 
 138   0.0000       5.287907       143.8913 
 139   0.0000       5.398122       146.8904 
 140   0.0000       5.406750       147.1251 
 141   0.0000       5.424372       147.6047 
 142   0.0000       5.729393       155.9047 

                 SPIN DOWN ORBITALS
  NO   OCC          E(Eh)            E(eV) 
   0   1.0000    -196.452962     -5345.7569 
   1   1.0000     -88.613336     -2411.2915 
   2   1.0000     -22.051947      -600.0640 
   3   1.0000     -18.579568      -505.5758 
   4   1.0000     -18.569288      -505.2960 
   5   1.0000     -18.568480      -505.2740 
   6   1.0000      -7.823199      -212.8801 
   7   1.0000      -5.762406      -156.8030 
   8   1.0000      -5.758988      -156.7100 
   9   1.0000      -5.755759      -156.6222 
  10   1.0000      -2.508192       -68.2514 
  11   1.0000      -1.565789       -42.6073 
  12   1.0000      -1.539642       -41.8958 
  13   1.0000      -1.537291       -41.8318 
  14   1.0000      -0.603023       -16.4091 
  15   1.0000      -0.251942        -6.8557 
  16   1.0000      -0.242290        -6.5931 
  17   1.0000      -0.225875        -6.1464 
  18   0.0000      -0.108782        -2.9601 
  19   0.0000      -0.090926        -2.4742 
  20   0.0000      -0.086235        -2.3466 
  21   0.0000      -0.069483        -1.8907 
  22   0.0000      -0.059901        -1.6300 
  23   0.0000      -0.055966        -1.5229 
  24   0.0000      -0.002311        -0.0629 
  25   0.0000       0.000739         0.0201 
  26   0.0000       0.011714         0.3188 
  27   0.0000       0.020177         0.5490 
  28   0.0000       0.039343         1.0706 
  29   0.0000       0.041043         1.1168 
  30   0.0000       0.046550         1.2667 
  31   0.0000       0.048748         1.3265 
  32   0.0000       0.049280         1.3410 
  33   0.0000       0.056138         1.5276 
  34   0.0000       0.056918         1.5488 
  35   0.0000       0.076112         2.0711 
  36   0.0000       0.108554         2.9539 
  37   0.0000       0.127094         3.4584 
  38   0.0000       0.127459         3.4683 
  39   0.0000       0.129623         3.5272 
  40   0.0000       0.157651         4.2899 
  41   0.0000       0.162692         4.4271 
  42   0.0000       0.180443         4.9101 
  43   0.0000       0.183667         4.9978 
  44   0.0000       0.190154         5.1743 
  45   0.0000       0.195099         5.3089 
  46   0.0000       0.198330         5.3968 
  47   0.0000       0.224870         6.1190 
  48   0.0000       0.231625         6.3028 
  49   0.0000       0.233070         6.3422 
  50   0.0000       0.302674         8.2362 
  51   0.0000       0.312569         8.5054 
  52   0.0000       0.316874         8.6226 
  53   0.0000       0.372813        10.1448 
  54   0.0000       0.412562        11.2264 
  55   0.0000       0.413467        11.2510 
  56   0.0000       0.450631        12.2623 
  57   0.0000       0.475771        12.9464 
  58   0.0000       0.477042        12.9810 
  59   0.0000       0.497318        13.5327 
  60   0.0000       0.504163        13.7190 
  61   0.0000       0.563801        15.3418 
  62   0.0000       0.570178        15.5153 
  63   0.0000       0.574221        15.6253 
  64   0.0000       0.602583        16.3971 
  65   0.0000       0.604615        16.4524 
  66   0.0000       0.607335        16.5264 
  67   0.0000       0.607385        16.5278 
  68   0.0000       0.638514        17.3749 
  69   0.0000       0.674973        18.3670 
  70   0.0000       0.675539        18.3823 
  71   0.0000       0.717008        19.5108 
  72   0.0000       0.728856        19.8332 
  73   0.0000       0.749194        20.3866 
  74   0.0000       0.794906        21.6305 
  75   0.0000       0.795167        21.6376 
  76   0.0000       0.873670        23.7738 
  77   0.0000       0.878522        23.9058 
  78   0.0000       0.887274        24.1440 
  79   0.0000       0.932282        25.3687 
  80   0.0000       0.959306        26.1040 
  81   0.0000       0.961276        26.1576 
  82   0.0000       1.199565        32.6418 
  83   0.0000       1.202649        32.7257 
  84   0.0000       1.209577        32.9143 
  85   0.0000       1.429849        38.9082 
  86   0.0000       1.430321        38.9210 
  87   0.0000       1.449956        39.4553 
  88   0.0000       1.459352        39.7110 
  89   0.0000       1.528448        41.5912 
  90   0.0000       1.571032        42.7499 
  91   0.0000       1.580112        42.9970 
  92   0.0000       1.672113        45.5005 
  93   0.0000       1.673630        45.5418 
  94   0.0000       1.712065        46.5877 
  95   0.0000       1.713851        46.6362 
  96   0.0000       1.782521        48.5049 
  97   0.0000       1.801724        49.0274 
  98   0.0000       1.803504        49.0758 
  99   0.0000       1.864691        50.7408 
 100   0.0000       1.871526        50.9268 
 101   0.0000       1.910048        51.9750 
 102   0.0000       1.911551        52.0160 
 103   0.0000       2.012286        54.7571 
 104   0.0000       2.036562        55.4177 
 105   0.0000       2.048282        55.7366 
 106   0.0000       2.118301        57.6419 
 107   0.0000       2.175267        59.1920 
 108   0.0000       2.186255        59.4910 
 109   0.0000       2.190208        59.5986 
 110   0.0000       2.192910        59.6721 
 111   0.0000       2.228815        60.6491 
 112   0.0000       2.285591        62.1941 
 113   0.0000       2.298662        62.5498 
 114   0.0000       2.301487        62.6266 
 115   0.0000       2.303709        62.6871 
 116   0.0000       2.525934        68.7342 
 117   0.0000       2.651729        72.1572 
 118   0.0000       2.727463        74.2180 
 119   0.0000       2.744876        74.6919 
 120   0.0000       2.818808        76.7037 
 121   0.0000       2.851784        77.6010 
 122   0.0000       3.110587        84.6434 
 123   0.0000       3.133084        85.2555 
 124   0.0000       3.468382        94.3795 
 125   0.0000       3.715508       101.1041 
 126   0.0000       4.910228       133.6141 
 127   0.0000       4.911627       133.6522 
 128   0.0000       4.933293       134.2417 
 129   0.0000       4.959867       134.9648 
 130   0.0000       5.117663       139.2587 
 131   0.0000       5.145104       140.0054 
 132   0.0000       5.322229       144.8252 
 133   0.0000       5.327343       144.9644 
 134   0.0000       5.330670       145.0549 
 135   0.0000       5.349211       145.5594 
 136   0.0000       5.349575       145.5693 
 137   0.0000       5.416397       147.3876 
 138   0.0000       5.432497       147.8258 
 139   0.0000       5.528864       150.4480 
 140   0.0000       5.536078       150.6443 
 141   0.0000       5.553808       151.1268 
 142   0.0000       5.799904       157.8234 

                    ********************************
                    * MULLIKEN POPULATION ANALYSIS *
                    ********************************

--------------------------------------------
MULLIKEN ATOMIC CHARGES AND SPIN POPULATIONS
--------------------------------------------
   0 V :    0.226099    3.356040
   1 S :   -0.226099   -0.356040
Sum of atomic charges         :   -0.0000000
Sum of atomic spin populations:    3.0000000

-----------------------------------------------------
MULLIKEN REDUCED ORBITAL CHARGES AND SPIN POPULATIONS
-----------------------------------------------------
CHARGE
  0 V s       :     6.838274  s :     6.838274
      pz      :     4.124402  p :    12.345923
      px      :     4.100180
      py      :     4.121341
      dz2     :     0.863138  d :     3.557947
      dxz     :     0.807797
      dyz     :     0.894128
      dx2y2   :     0.034351
      dxy     :     0.958533
      f0      :     0.004007  f :     0.027625
      f+1     :     0.011370
      f-1     :     0.011729
      f+2     :     0.000006
      f-2     :     0.000222
      f+3     :     0.000148
      f-3     :     0.000142
      g0      :     0.000734  g :     0.004132
      g+1     :     0.001610
      g-1     :     0.001619
      g+2     :     0.000001
      g-2     :     0.000022
      g+3     :     0.000023
      g-3     :     0.000011
      g+4     :     0.000097
      g-4     :     0.000014
  1 S s       :     5.884419  s :     5.884419
      pz      :     3.283284  p :    10.304987
      px      :     3.477375
      py      :     3.544328
      dz2     :     0.005674  d :     0.034068
      dxz     :     0.013471
      dyz     :     0.013515
      dx2y2   :     0.000046
      dxy     :     0.001362
      f0      :     0.001025  f :     0.002625
      f+1     :     0.000615
      f-1     :     0.000504
      f+2     :     0.000013
      f-2     :     0.000378
      f+3     :     0.000043
      f-3     :     0.000045

SPIN
  0 V s       :     0.587852  s :     0.587852
      pz      :     0.023259  p :     0.145444
      px      :     0.051308
      py      :     0.070877
      dz2     :     0.497021  d :     2.625838
      dxz     :     0.522798
      dyz     :     0.613307
      dx2y2   :     0.034346
      dxy     :     0.958366
      f0      :    -0.001002  f :    -0.002402
      f+1     :    -0.000990
      f-1     :    -0.000784
      f+2     :     0.000005
      f-2     :     0.000184
      f+3     :     0.000072
      f-3     :     0.000112
      g0      :    -0.000111  g :    -0.000693
      g+1     :    -0.000368
      g-1     :    -0.000357
      g+2     :     0.000001
      g-2     :     0.000017
      g+3     :     0.000019
      g-3     :     0.000010
      g+4     :     0.000084
      g-4     :     0.000013
  1 S s       :     0.025993  s :     0.025993
      pz      :    -0.127013  p :    -0.385278
      px      :    -0.161500
      py      :    -0.096766
      dz2     :    -0.000337  d :     0.004089
      dxz     :     0.001663
      dyz     :     0.001615
      dx2y2   :     0.000038
      dxy     :     0.001109
      f0      :    -0.000174  f :    -0.000843
      f+1     :    -0.000370
      f-1     :    -0.000582
      f+2     :     0.000012
      f-2     :     0.000341
      f+3     :    -0.000038
      f-3     :    -0.000032


                     *******************************
                     * LOEWDIN POPULATION ANALYSIS *
                     *******************************

-------------------------------------------
LOEWDIN ATOMIC CHARGES AND SPIN POPULATIONS
-------------------------------------------
   0 V :    0.061929    3.102217
   1 S :   -0.061929   -0.102217

----------------------------------------------------
LOEWDIN REDUCED ORBITAL CHARGES AND SPIN POPULATIONS
----------------------------------------------------
CHARGE
  0 V s       :     6.463488  s :     6.463488
      pz      :     4.218746  p :    12.403231
      px      :     4.076154
      py      :     4.108330
      dz2     :     1.002089  d :     3.752304
      dxz     :     0.845299
      dyz     :     0.929634
      dx2y2   :     0.033740
      dxy     :     0.941541
      f0      :     0.103922  f :     0.276208
      f+1     :     0.082751
      f-1     :     0.088039
      f+2     :     0.000039
      f-2     :     0.001166
      f+3     :     0.000149
      f-3     :     0.000142
      g0      :     0.014329  g :     0.042840
      g+1     :     0.013758
      g-1     :     0.014490
      g+2     :     0.000004
      g-2     :     0.000114
      g+3     :     0.000024
      g-3     :     0.000011
      g+4     :     0.000097
      g-4     :     0.000014
  1 S s       :     5.430497  s :     5.430497
      pz      :     3.494566  p :    10.126163
      px      :     3.291745
      py      :     3.339852
      dz2     :     0.172153  d :     0.294400
      dxz     :     0.056173
      dyz     :     0.058836
      dx2y2   :     0.000249
      dxy     :     0.006989
      f0      :     0.105169  f :     0.210869
      f+1     :     0.046538
      f-1     :     0.047984
      f+2     :     0.000384
      f-2     :     0.010707
      f+3     :     0.000043
      f-3     :     0.000045

SPIN
  0 V s       :     0.505551  s :     0.505551
      pz      :     0.018314  p :     0.151928
      px      :     0.051612
      py      :     0.082002
      dz2     :     0.469266  d :     2.463947
      dxz     :     0.465566
      dyz     :     0.554008
      dx2y2   :     0.033735
      dxy     :     0.941372
      f0      :    -0.001196  f :    -0.015959
      f+1     :    -0.010651
      f-1     :    -0.005456
      f+2     :     0.000038
      f-2     :     0.001123
      f+3     :     0.000072
      f-3     :     0.000112
      g0      :    -0.000275  g :    -0.003250
      g+1     :    -0.001962
      g-1     :    -0.001249
      g+2     :     0.000004
      g-2     :     0.000107
      g+3     :     0.000019
      g-3     :     0.000010
      g+4     :     0.000084
      g-4     :     0.000013
  1 S s       :     0.028362  s :     0.028362
      pz      :    -0.026842  p :    -0.222298
      px      :    -0.120736
      py      :    -0.074720
      dz2     :     0.010741  d :     0.057873
      dxz     :     0.018773
      dyz     :     0.021371
      dx2y2   :     0.000242
      dxy     :     0.006746
      f0      :     0.001568  f :     0.033847
      f+1     :     0.009941
      f-1     :     0.011354
      f+2     :     0.000383
      f-2     :     0.010670
      f+3     :    -0.000037
      f-3     :    -0.000032


                      *****************************
                      * MAYER POPULATION ANALYSIS *
                      *****************************

  NA   - Mulliken gross atomic population
  ZA   - Total nuclear charge
  QA   - Mulliken gross atomic charge
  VA   - Mayer's total valence
  BVA  - Mayer's bonded valence
  FA   - Mayer's free valence

  ATOM       NA         ZA         QA         VA         BVA        FA
  0 V     22.7739    23.0000     0.2261     5.2433     2.4387     2.8046
  1 S     16.2261    16.0000    -0.2261     2.5655     2.4387     0.1268

  Mayer bond orders larger than 0.100000
B(  0-V ,  1-S ) :   2.4387 

-------
TIMINGS
-------

Total SCF time: 0 days 0 hours 0 min 6 sec 

Total time                  ....       6.397 sec
Sum of individual times     ....       6.227 sec  ( 97.3%)

Fock matrix formation       ....       5.721 sec  ( 89.4%)
  Split-RI-J                ....       4.050 sec  ( 70.8% of F)
  XC integration            ....       1.482 sec  ( 25.9% of F)
    Basis function eval.    ....       0.167 sec  ( 11.2% of XC)
    Density eval.           ....       0.176 sec  ( 11.9% of XC)
    XC-Functional eval.     ....       0.033 sec  (  2.2% of XC)
    XC-Potential eval.      ....       0.551 sec  ( 37.2% of XC)
Diagonalization             ....       0.158 sec  (  2.5%)
Density matrix formation    ....       0.019 sec  (  0.3%)
Population analysis         ....       0.008 sec  (  0.1%)
Initial guess               ....       0.101 sec  (  1.6%)
Orbital Transformation      ....       0.000 sec  (  0.0%)
Orbital Orthonormalization  ....       0.000 sec  (  0.0%)
DIIS solution               ....       0.058 sec  (  0.9%)
Grid generation             ....       0.162 sec  (  2.5%)


-------------------------------------------------------------------------------
                          DFT DISPERSION CORRECTION                            
                                                                               
                              DFTD3 V3.1  Rev 1                                
                          USING Becke-Johnson damping                          
-------------------------------------------------------------------------------
The SCAN functional is recognized
Active option DFTDOPT                   ...         4   

molecular C6(AA) [au] = 1116.027698 


            DFT-D V3
 parameters
 s6 scaling factor         :     1.0000 
 a1 scaling factor         :     0.5380 
 s8 scaling factor         :     0.0000 
 a2 scaling factor         :     5.4200 
 ad hoc parameters k1-k3   :    16.0000     1.3333    -4.0000 

 Edisp/kcal,au: -0.147037142007  -0.000234318576 
 E6   /kcal   :  -0.147037142 
 E8   /kcal   :  -0.000000000 
 % E8         :   0.000000000 

-------------------------   ----------------
Dispersion correction           -0.000234319
-------------------------   ----------------


-------------------------   --------------------
FINAL SINGLE POINT ENERGY     -1342.326519225344
-------------------------   --------------------


                            ***************************************
                            *     ORCA property calculations      *
                            ***************************************

                                    ---------------------
                                    Active property flags
                                    ---------------------
   (+) Dipole Moment


------------------------------------------------------------------------------
                       ORCA ELECTRIC PROPERTIES CALCULATION
------------------------------------------------------------------------------

Dipole Moment Calculation                       ... on
Quadrupole Moment Calculation                   ... off
Polarizability Calculation                      ... off
GBWName                                         ... 18_VS.gbw
Electron density file                           ... 18_VS.scfp
The origin for moment calculation is the CENTER OF MASS  = ( 0.000000,  0.000000  1.447902)

-------------
DIPOLE MOMENT
-------------
                                X             Y             Z
Electronic contribution:     -0.00081      -0.00068      -5.52771
Nuclear contribution   :      0.00000       0.00000       3.63475
                        -----------------------------------------
Total Dipole Moment    :     -0.00081      -0.00068      -1.89296
                        -----------------------------------------
Magnitude (a.u.)       :      1.89296
Magnitude (Debye)      :      4.81153



--------------------
Rotational spectrum 
--------------------
 
Rotational constants in cm-1:     0.000000     0.202740     0.202740 
Rotational constants in MHz :     0.000000  6078.002656  6078.002656 

 Dipole components along the rotational axes: 
x,y,z [a.u.] :    -1.892963    -0.000676    -0.000810 
x,y,z [Debye]:    -4.811529    -0.001718    -0.002060 

 

Timings for individual modules:

Sum of individual times         ...        9.859 sec (=   0.164 min)
GTO integral calculation        ...        3.074 sec (=   0.051 min)  31.2 %
SCF iterations                  ...        6.786 sec (=   0.113 min)  68.8 %
                             ****ORCA TERMINATED NORMALLY****
TOTAL RUN TIME: 0 days 0 hours 0 minutes 10 seconds 431 msec
