
                                 *****************
                                 * O   R   C   A *
                                 *****************

           --- An Ab Initio, DFT and Semiempirical electronic structure package ---

                  #######################################################
                  #                        -***-                        #
                  #          Department of theory and spectroscopy      #
                  #               Directorship: Frank Neese             #
                  #        Max Planck Institute fuer Kohlenforschung    #
                  #                Kaiser Wilhelm Platz 1               #
                  #                 D-45470 Muelheim/Ruhr               #
                  #                      Germany                        #
                  #                                                     #
                  #                  All rights reserved                #
                  #                        -***-                        #
                  #######################################################


                         Program Version 4.2.0 -  RELEASE  -


 With contributions from (in alphabetic order):
   Daniel Aravena         : Magnetic Suceptibility
   Michael Atanasov       : Ab Initio Ligand Field Theory (pilot matlab implementation)
   Alexander A. Auer      : GIAO ZORA, VPT2
   Ute Becker             : Parallelization
   Giovanni Bistoni       : ED, misc. LED, open-shell LED, HFLED
   Martin Brehm           : Molecular dynamics
   Dmytro Bykov           : SCF Hessian
   Vijay G. Chilkuri      : MRCI spin determinant printing, contributions to CSF-ICE
   Dipayan Datta          : RHF DLPNO-CCSD density
   Achintya Kumar Dutta   : EOM-CC, STEOM-CC
   Dmitry Ganyushin       : Spin-Orbit,Spin-Spin,Magnetic field MRCI
   Miquel Garcia          : C-PCM Hessian, Gaussian charge scheme
   Yang Guo               : DLPNO-NEVPT2, CIM, IAO-localization
   Andreas Hansen         : Spin unrestricted coupled pair/coupled cluster methods
   Benjamin Helmich-Paris : CASSCF linear response (MC-RPA)
   Lee Huntington         : MR-EOM, pCC
   Robert Izsak           : Overlap fitted RIJCOSX, COSX-SCS-MP3, EOM
   Christian Kollmar      : KDIIS, OOCD, Brueckner-CCSD(T), CCSD density
   Simone Kossmann        : Meta GGA functionals, TD-DFT gradient, OOMP2, MP2 Hessian
   Martin Krupicka        : AUTO-CI
   Lucas Lang             : DCDCAS
   Dagmar Lenk            : GEPOL surface, SMD
   Dimitrios Liakos       : Extrapolation schemes; Compound Job, initial MDCI parallelization
   Dimitrios Manganas     : Further ROCIS development; embedding schemes
   Dimitrios Pantazis     : SARC Basis sets
   Taras Petrenko         : DFT Hessian,TD-DFT gradient, ASA, ECA, R-Raman, ABS, FL, XAS/XES, NRVS
   Peter Pinski           : DLPNO-MP2, DLPNO-MP2 Gradient
   Christoph Reimann      : Effective Core Potentials
   Marius Retegan         : Local ZFS, SOC
   Christoph Riplinger    : Optimizer, TS searches, QM/MM, DLPNO-CCSD(T), (RO)-DLPNO pert. Triples
   Tobias Risthaus        : Range-separated hybrids, TD-DFT gradient, RPA, STAB
   Michael Roemelt        : Original ROCIS implementation
   Masaaki Saitow         : Open-shell DLPNO-CCSD energy and density
   Barbara Sandhoefer     : DKH picture change effects
   Avijit Sen             : IP-ROCIS
   Kantharuban Sivalingam : CASSCF convergence, NEVPT2, FIC-MRCI
   Bernardo de Souza      : ESD, SOC TD-DFT
   Georgi Stoychev        : AutoAux, RI-MP2 NMR
   Willem Van den Heuvel  : Paramagnetic NMR
   Boris Wezisla          : Elementary symmetry handling
   Frank Wennmohs         : Technical directorship


 We gratefully acknowledge several colleagues who have allowed us to
 interface, adapt or use parts of their codes:
   Stefan Grimme, W. Hujo, H. Kruse,             : VdW corrections, initial TS optimization,
                  C. Bannwarth                     DFT functionals, gCP, sTDA/sTD-DF
   Ed Valeev, F. Pavosevic, A. Kumar             : LibInt (2-el integral package), F12 methods
   Garnet Chan, S. Sharma, J. Yang, R. Olivares  : DMRG
   Ulf Ekstrom                                   : XCFun DFT Library
   Mihaly Kallay                                 : mrcc  (arbitrary order and MRCC methods)
   Andreas Klamt, Michael Diedenhofen            : otool_cosmo (COSMO solvation model)
   Jiri Pittner, Ondrej Demel                    : Mk-CCSD
   Frank Weinhold                                : gennbo (NPA and NBO analysis)
   Christopher J. Cramer and Donald G. Truhlar   : smd solvation model
   Lars Goerigk                                  : TD-DFT with DH, B97 family of functionals
   V. Asgeirsson, H. Jonsson                     : NEB implementation
   FAccTs GmbH                                   : IRC, NEB, NEB-TS, Multilevel, MM, QM/MM, CI optimization
   S Lehtola, MJT Oliveira, MAL Marques          : LibXC Library


 Your calculation uses the libint2 library for the computation of 2-el integrals
 For citations please refer to: http://libint.valeyev.net

 Your ORCA version has been built with support for libXC version: 4.2.3
 For citations please refer to: https://tddft.org/programs/libxc/

 This ORCA versions uses:
   CBLAS   interface :  Fast vector & matrix operations
   LAPACKE interface :  Fast linear algebra routines
   SCALAPACK package :  Parallel linear algebra routines


Your calculation utilizes the atom-pairwise dispersion correction
with the Becke-Johnson damping scheme (D3BJ)
Cite in your paper:
S.Grimme, S.Ehrlich, L.Goerigk, J Comput Chem, (2011), 32, 1456–1465 
S.Grimme, J.Antony, S.Ehrlich and H.Krieg, J.Chem.Phys., 132, (2010), 154104 
   

----- Orbital basis set information -----
Your calculation utilizes the basis: aug-cc-pVTZ 
    H, B-Ne : Obtained from the ccRepo (grant-hill.group.shef.ac.uk/ccrepo) Feb. 2017
              R. A. Kendall, T. H. Dunning, Jr., R. J. Harrison, J. Chem. Phys. 96, 6796 (1992)
         He : Obtained from the ccRepo (grant-hill.group.shef.ac.uk/ccrepo) Feb. 2017
              D. E. Woon, T. H. Dunning, Jr., J. Chem. Phys. 100, 2975 (1994)
  Li-Be, Na : Obtained from the ccRepo (grant-hill.group.shef.ac.uk/ccrepo) Feb. 2017
              B. P. Prascher, D. E. Woon, K. A. Peterson, T. H. Dunning, Jr., A. K. Wilson, Theor. Chem. Acc. 128, 69 (2011)
         Mg : Obtained from the Peterson Research Group Website (tyr0.chem.wsu.edu/~kipeters) Feb. 2017
              B. P. Prascher, D. E. Woon, K. A. Peterson, T. H. Dunning, Jr., A. K. Wilson, Theor. Chem. Acc. 128, 69 (2011)
      Al-Ar : Obtained from the ccRepo (grant-hill.group.shef.ac.uk/ccrepo) Feb. 2017
              D. E. Woon, T. H. Dunning, Jr., J. Chem. Phys. 98, 1358 (1993)
      Sc-Zn : Obtained from the ccRepo (grant-hill.group.shef.ac.uk/ccrepo) Feb. 2017
              N. B. Balabanov, K. A. Peterson, J. Chem. Phys. 123, 064107 (2005)
              N. B. Balabanov, K. A. Peterson, J. Chem. Phys. 125, 074110 (2006)
      Ga-Kr : Obtained from the ccRepo (grant-hill.group.shef.ac.uk/ccrepo) Feb. 2017
              A. K. Wilson, D. E. Woon, K. A. Peterson, T. H. Dunning, Jr., J. Chem. Phys. 110, 7667 (1999)
     Ag, Au : Obtained from the Peterson Research Group Website (tyr0.chem.wsu.edu/~kipeters) Feb. 2017
              K. A. Peterson, C. Puzzarini, Theor. Chem. Acc. 114, 283 (2005)

----- AuxJ basis set information -----
Your calculation utilizes the auxiliary basis: def2/J
   F. Weigend, Phys. Chem. Chem. Phys. 8, 1057 (2006).

================================================================================
                                        WARNINGS
                       Please study these warnings very carefully!
================================================================================


WARNING: your system is open-shell and RHF/RKS was chosen
  ===> : WILL SWITCH to UHF/UKS


WARNING: The SCAN functional is very grid-sensitive!
         Use at least GRID5 and a higher intacc

INFO   : the flag for use of LIBINT has been found!

================================================================================
                                       INPUT FILE
================================================================================
NAME = 22_CrBr.in
|  1> #
|  2> # 22_CrBr scanfunc/aug-cc-pvtz
|  3> #
|  4> ! scanfunc d3bj aug-cc-pvtz def2/j grid4 nofinalgrid
|  5> 
|  6> *xyz 0 6
|  7>   Cr  0.00000000000000      0.00000000000000     -0.17198862284832
|  8>   Br  0.00000000000000      0.00000000000000      2.17198862284831
|  9> *
| 10> 
| 11> %pal
| 12> nprocs 24
| 13> end
| 14> 
| 15> 
| 16>                          ****END OF INPUT****
================================================================================

                       ****************************
                       * Single Point Calculation *
                       ****************************

---------------------------------
CARTESIAN COORDINATES (ANGSTROEM)
---------------------------------
  Cr     0.000000    0.000000   -0.171989
  Br     0.000000    0.000000    2.171989

----------------------------
CARTESIAN COORDINATES (A.U.)
----------------------------
  NO LB      ZA    FRAG     MASS         X           Y           Z
   0 Cr   24.0000    0    52.000    0.000000    0.000000   -0.325011
   1 Br   35.0000    0    79.900    0.000000    0.000000    4.104464

--------------------------------
INTERNAL COORDINATES (ANGSTROEM)
--------------------------------
 Cr     0   0   0     0.000000000000     0.00000000     0.00000000
 Br     1   0   0     2.343977245697     0.00000000     0.00000000

---------------------------
INTERNAL COORDINATES (A.U.)
---------------------------
 Cr     0   0   0     0.000000000000     0.00000000     0.00000000
 Br     1   0   0     4.429475058510     0.00000000     0.00000000

---------------------
BASIS SET INFORMATION
---------------------
There are 2 groups of distinct atoms

 Group   1 Type Cr  : 116s77p23d3f2g contracted to 8s7p5d3f2g pattern {19191919191911/151515151511/77711/111/11}
 Group   2 Type Br  : 75s36p10d2f contracted to 7s6p4d2f pattern {18181818111/111111111/7111/11}

Atom   0Cr   basis set group =>   1
Atom   1Br   basis set group =>   2
---------------------------------
AUXILIARY/J BASIS SET INFORMATION
---------------------------------
There are 2 groups of distinct atoms

 Group   1 Type Cr  : 19s5p5d3f3g contracted to 8s5p5d2f3g pattern {121111111/11111/11111/21/111}
 Group   2 Type Br  : 19s5p5d3f1g contracted to 8s4p3d2f1g pattern {121111111/2111/311/21/1}

Atom   0Cr   basis set group =>   1
Atom   1Br   basis set group =>   2


           ************************************************************
           *        Program running with 24 parallel MPI-processes    *
           *              working on a common directory               *
           ************************************************************
------------------------------------------------------------------------------
                           ORCA GTO INTEGRAL CALCULATION
                           -- RI-GTO INTEGRALS CHOSEN --
------------------------------------------------------------------------------

                         BASIS SET STATISTICS AND STARTUP INFO

Gaussian basis set:
 # of primitive gaussian shells          ...  344
 # of primitive gaussian functions       ...  748
 # of contracted shells                  ...   44
 # of contracted basis functions         ...  152
 Highest angular momentum                ...    4
 Maximum contraction depth               ...   19
Auxiliary gaussian basis set:
 # of primitive gaussian shells          ...   68
 # of primitive gaussian functions       ...  196
 # of contracted shells                  ...   41
 # of contracted aux-basis functions     ...  147
 Highest angular momentum                ...    4
 Maximum contraction depth               ...   12
Ratio of auxiliary to basis functions    ...  0.97
Integral package used                  ... LIBINT
 One Electron integrals                  ... done
 Ordering auxiliary basis shells         ... done
 Integral threshhold             Thresh  ...  1.000e-10
 Primitive cut-off               TCut    ...  1.000e-11
 Pre-screening matrix                    ... done
 Shell pair data                         ... 
 Ordering of the shell pairs             ... done (   0.000 sec) 990 of 990 pairs
 Determination of significant pairs      ... done (   0.000 sec)
 Creation of shell pair data             ... done (   0.002 sec)
 Storage of shell pair data              ... done (   0.003 sec)
 Shell pair data done in (   0.006 sec)
 Computing two index integrals           ... done
 Cholesky decomposition of the V-matrix  ... done


Timings:
 Total evaluation time                   ...   3.981 sec (  0.066 min)
 One electron matrix time                ...   0.064 sec (  0.001 min) =  1.6%
 Schwartz matrix evaluation time         ...   3.883 sec (  0.065 min) = 97.5%
 Two index repulsion integral time       ...   0.001 sec (  0.000 min) =  0.0%
 Cholesky decomposition of V             ...   0.001 sec (  0.000 min) =  0.0%
 Three index repulsion integral time     ...   0.000 sec (  0.000 min) =  0.0%



           ************************************************************
           *        Program running with 24 parallel MPI-processes    *
           *              working on a common directory               *
           ************************************************************
-------------------------------------------------------------------------------
                                 ORCA SCF
-------------------------------------------------------------------------------

------------
SCF SETTINGS
------------
Hamiltonian:
 Density Functional     Method          .... DFT(GTOs)
 Exchange Functional    Exchange        .... SCAN
 Correlation Functional Correlation     .... SCAN
 Gradients option       PostSCFGGA      .... off
   Density functional embedding theory  .... OFF
   NL short-range parameter             ....  6.400000
 RI-approximation to the Coulomb term is turned on
   Number of auxiliary basis functions  .... 147


General Settings:
 Integral files         IntName         .... 22_CrBr
 Hartree-Fock type      HFTyp           .... UHF
 Total Charge           Charge          ....    0
 Multiplicity           Mult            ....    6
 Number of Electrons    NEL             ....   59
 Basis Dimension        Dim             ....  152
 Nuclear Repulsion      ENuc            ....    189.6387244322 Eh

Convergence Acceleration:
 DIIS                   CNVDIIS         .... on
   Start iteration      DIISMaxIt       ....    12
   Startup error        DIISStart       ....  0.200000
   # of expansion vecs  DIISMaxEq       ....     5
   Bias factor          DIISBfac        ....   1.050
   Max. coefficient     DIISMaxC        ....  10.000
 Newton-Raphson         CNVNR           .... off
 SOSCF                  CNVSOSCF        .... off
 Level Shifting         CNVShift        .... on
   Level shift para.    LevelShift      ....    0.2500
   Turn off err/grad.   ShiftErr        ....    0.0010
 Zerner damping         CNVZerner       .... off
 Static damping         CNVDamp         .... on
   Fraction old density DampFac         ....    0.7000
   Max. Damping (<1)    DampMax         ....    0.9800
   Min. Damping (>=0)   DampMin         ....    0.0000
   Turn off err/grad.   DampErr         ....    0.1000
 Fernandez-Rico         CNVRico         .... off

SCF Procedure:
 Maximum # iterations   MaxIter         ....   125
 SCF integral mode      SCFMode         .... Direct
   Integral package                     .... LIBINT
 Reset frequency        DirectResetFreq ....    20
 Integral Threshold     Thresh          ....  1.000e-10 Eh
 Primitive CutOff       TCut            ....  1.000e-11 Eh

Convergence Tolerance:
 Convergence Check Mode ConvCheckMode   .... Total+1el-Energy
 Convergence forced     ConvForced      .... 0
 Energy Change          TolE            ....  1.000e-06 Eh
 1-El. energy change                    ....  1.000e-03 Eh
 DIIS Error             TolErr          ....  1.000e-06


Diagonalization of the overlap matrix:
Smallest eigenvalue                        ... 9.409e-05
Time for diagonalization                   ...    0.006 sec
Threshold for overlap eigenvalues          ... 1.000e-08
Number of eigenvalues below threshold      ... 0
Time for construction of square roots      ...    0.003 sec
Total time needed                          ...    0.009 sec

-------------------
DFT GRID GENERATION
-------------------

General Integration Accuracy     IntAcc      ...  4.670
Radial Grid Type                 RadialGrid  ... Gauss-Chebyshev
Angular Grid (max. acc.)         AngularGrid ... Lebedev-302
Angular grid pruning method      GridPruning ... 3 (G Style)
Weight generation scheme         WeightScheme... Becke
Basis function cutoff            BFCut       ...    1.0000e-10
Integration weight cutoff        WCut        ...    1.0000e-14
Grids for H and He will be reduced by one unit

# of grid points (after initial pruning)     ...  19280 (   0.0 sec)
# of grid points (after weights+screening)   ...  19253 (   0.0 sec)
nearest neighbour list constructed           ...    0.0 sec
Grid point re-assignment to atoms done       ...    0.0 sec
Grid point division into batches done        ...    0.1 sec
Reduced shell lists constructed in    0.1 sec

Total number of grid points                  ...    19253
Total number of batches                      ...      302
Average number of points per batch           ...       63
Average number of grid points per atom       ...     9626
Average number of shells per batch           ...    16.43 (37.34%)
Average number of basis functions per batch  ...    43.57 (28.67%)
Average number of large shells per batch     ...     9.36 (56.96%)
Average number of large basis fcns per batch ...    25.64 (58.85%)
Maximum spatial batch extension              ...  24.49, 24.19, 17.83 au
Average spatial batch extension              ...   0.84,  0.83,  0.67 au

Time for grid setup =    0.200 sec

------------------------------
INITIAL GUESS: MODEL POTENTIAL
------------------------------
Loading Hartree-Fock densities                     ... done
Calculating cut-offs                               ... done
Setting up the integral package                    ... done
Initializing the effective Hamiltonian             ... done
Starting the Coulomb interaction                   ... done (   0.0 sec)
Reading the grid                                   ... done
Mapping shells                                     ... done
Starting the XC term evaluation                    ... done (   0.0 sec)
  promolecular density results
     # of electrons  =     58.999978508
     EX              =   -155.229331715
     EC              =     -1.067545983
     EX+EC           =   -156.296877698
Transforming the Hamiltonian                       ... done (   0.0 sec)
Diagonalizing the Hamiltonian                      ... done (   0.0 sec)
Back transforming the eigenvectors                 ... done (   0.0 sec)
Now organizing SCF variables                       ... done
                      ------------------
                      INITIAL GUESS DONE (   0.3 sec)
                      ------------------
--------------
SCF ITERATIONS
--------------
ITER       Energy         Delta-E        Max-DP      RMS-DP      [F,P]     Damp
               ***  Starting incremental Fock matrix formation  ***
  0  -3618.6330234004   0.000000000000 0.44883822  0.00808883  0.4302466 0.7000
  1  -3618.8649364814  -0.231913081009 0.21130690  0.00403383  0.1003840 0.7000
                               ***Turning on DIIS***
  2  -3618.8702246241  -0.005288142674 0.10484819  0.00210032  0.1120261 0.7000
  3  -3618.9476820087  -0.077457384583 0.34671619  0.00692177  0.0520200 0.0000
  4  -3619.1068467496  -0.159164740850 0.03142266  0.00038357  0.1012816 0.7000
  5  -3619.1134284972  -0.006581747642 0.11881414  0.00150247  0.0825126 0.0000
  6  -3619.1305377306  -0.017109233395 0.06770279  0.00083807  0.0126079 0.0000
  7  -3619.1322023558  -0.001664625179 0.03350744  0.00038234  0.0041485 0.0000
  8  -3619.1326123452  -0.000409989432 0.00959873  0.00018298  0.0022134 0.0000
  9  -3619.1327398834  -0.000127538159 0.00837307  0.00008477  0.0012912 0.0000
 10  -3619.1327860282  -0.000046144876 0.00339652  0.00003841  0.0012800 0.0000
 11  -3619.1328031166  -0.000017088391 0.83051593  0.00495753  0.0004950 0.0000
 12  -3619.1140756088   0.018727507876 0.00006763  0.00000147  0.1340052 0.7000
 13  -3619.1141504068  -0.000074798038 0.00012899  0.00000179  0.1339050 0.7000
 14  -3619.1142174023  -0.000066995486 0.00012226  0.00000193  0.1338022 0.7000
 15  -3619.1142605479  -0.000043145670 0.00009441  0.00000162  0.1337333 0.7000
 16  -3619.1142982343  -0.000037686358 0.10797033  0.00167789  0.1336744 0.7000
 17  -3619.1423678533  -0.028069619023 0.13774287  0.00167858  0.0385498 0.0000
 18  -3619.1580059391  -0.015638085762 0.01975449  0.00040362  0.0705550 0.0000
 19  -3619.1699577207  -0.011951781637 0.01601414  0.00028294  0.0318008 0.0000
               *** Restarting incremental Fock matrix formation ***
                                   *** Resetting DIIS ***
 20  -3619.1727368244  -0.002779103717 0.02360818  0.00042289  0.0124515 0.0000
 21  -3619.1729906538  -0.000253829390 0.02189345  0.00041348  0.0161822 0.0000
 22  -3619.1736916625  -0.000701008652 0.01450344  0.00013738  0.0045371 0.0000
 23  -3619.1739042941  -0.000212631634 0.01168441  0.00012049  0.0029495 0.0000
 24  -3619.1740407020  -0.000136407894 0.00872173  0.00007240  0.0022612 0.0000
 25  -3619.1741282420  -0.000087540012 0.00694635  0.00005054  0.0019655 0.0000
 26  -3619.1741793602  -0.000051118192 0.00561537  0.00003964  0.0016239 0.0000
 27  -3619.1742114092  -0.000032048981 0.00461123  0.00003255  0.0012337 0.0000
 28  -3619.1742311548  -0.000019745592 0.01610142  0.00011260  0.0008589 0.0000
 29  -3619.1742597943  -0.000028639542 0.00170352  0.00001527  0.0008681 0.0000
 30  -3619.1742614857  -0.000001691320 0.00072687  0.00001037  0.0002199 0.0000
 31  -3619.1742614733   0.000000012311 0.00042651  0.00000586  0.0001766 0.0000
                 **** Energy Check signals convergence ****

               *****************************************************
               *                     SUCCESS                       *
               *           SCF CONVERGED AFTER  32 CYCLES          *
               *****************************************************


----------------
TOTAL SCF ENERGY
----------------

Total Energy       :        -3619.17426166 Eh          -98482.73843 eV

Components:
Nuclear Repulsion  :          189.63872443 Eh            5160.33204 eV
Electronic Energy  :        -3808.81298610 Eh         -103643.07046 eV
One Electron Energy:        -5400.68397247 Eh         -146960.08220 eV
Two Electron Energy:         1591.87098637 Eh           43317.01173 eV

Virial components:
Potential Energy   :        -7233.54397012 Eh         -196834.73831 eV
Kinetic Energy     :         3614.36970846 Eh           98351.99989 eV
Virial Ratio       :            2.00132929


DFT components:
N(Alpha)           :       31.999995291014 electrons
N(Beta)            :       26.999996281283 electrons
N(Total)           :       58.999991572297 electrons
E(X)               :     -137.851636745320 Eh       
E(C)               :       -2.714083417327 Eh       
E(XC)              :     -140.565720162647 Eh       
DFET-embed. en.    :        0.000000000000 Eh       

---------------
SCF CONVERGENCE
---------------

  Last Energy change         ...   -1.9142e-07  Tolerance :   1.0000e-06
  Last MAX-Density change    ...    2.5039e-04  Tolerance :   1.0000e-05
  Last RMS-Density change    ...    2.7677e-06  Tolerance :   1.0000e-06
  Last DIIS Error            ...    3.6745e-05  Tolerance :   1.0000e-06

             **** THE GBW FILE WAS UPDATED (22_CrBr.gbw) ****
             **** DENSITY FILE WAS UPDATED (22_CrBr.scfp) ****
             **** ENERGY FILE WAS UPDATED (22_CrBr.en.tmp) ****
----------------------
UHF SPIN CONTAMINATION
----------------------

Warning: in a DFT calculation there is little theoretical justification to 
         calculate <S**2> as in Hartree-Fock theory. We will do it anyways
         but you should keep in mind that the values have only limited relevance

Expectation value of <S**2>     :     8.785734
Ideal value S*(S+1) for S=2.5   :     8.750000
Deviation                       :     0.035734

             **** THE GBW FILE WAS UPDATED (22_CrBr.gbw) ****
             **** DENSITY FILE WAS UPDATED (22_CrBr.scfp) ****
----------------
ORBITAL ENERGIES
----------------
                 SPIN UP ORBITALS
  NO   OCC          E(Eh)            E(eV) 
   0   1.0000    -482.231324    -13122.1814 
   1   1.0000    -215.072424     -5852.4182 
   2   1.0000     -62.271449     -1694.4923 
   3   1.0000     -56.072946     -1525.8224 
   4   1.0000     -56.072946     -1525.8224 
   5   1.0000     -56.071740     -1525.7896 
   6   1.0000     -24.611910      -669.7241 
   7   1.0000     -20.825463      -566.6897 
   8   1.0000     -20.823831      -566.6452 
   9   1.0000     -20.823816      -566.6448 
  10   1.0000      -8.618889      -234.5319 
  11   1.0000      -6.406847      -174.3392 
  12   1.0000      -6.403662      -174.2525 
  13   1.0000      -6.403662      -174.2525 
  14   1.0000      -2.886168       -78.5366 
  15   1.0000      -2.486275       -67.6550 
  16   1.0000      -2.485266       -67.6275 
  17   1.0000      -2.485266       -67.6275 
  18   1.0000      -2.482760       -67.5593 
  19   1.0000      -2.482707       -67.5579 
  20   1.0000      -1.830112       -49.7999 
  21   1.0000      -1.823685       -49.6250 
  22   1.0000      -1.823573       -49.6220 
  23   1.0000      -0.686358       -18.6767 
  24   1.0000      -0.297958        -8.1079 
  25   1.0000      -0.266117        -7.2414 
  26   1.0000      -0.266100        -7.2410 
  27   1.0000      -0.204051        -5.5525 
  28   1.0000      -0.203998        -5.5511 
  29   1.0000      -0.202654        -5.5145 
  30   1.0000      -0.202633        -5.5139 
  31   1.0000      -0.196195        -5.3387 
  32   0.0000      -0.132478        -3.6049 
  33   0.0000      -0.044493        -1.2107 
  34   0.0000      -0.044486        -1.2105 
  35   0.0000       0.007979         0.2171 
  36   0.0000       0.013584         0.3696 
  37   0.0000       0.028035         0.7629 
  38   0.0000       0.028038         0.7630 
  39   0.0000       0.054749         1.4898 
  40   0.0000       0.055121         1.4999 
  41   0.0000       0.055124         1.5000 
  42   0.0000       0.060468         1.6454 
  43   0.0000       0.060984         1.6595 
  44   0.0000       0.060988         1.6596 
  45   0.0000       0.115094         3.1319 
  46   0.0000       0.116583         3.1724 
  47   0.0000       0.118637         3.2283 
  48   0.0000       0.118640         3.2284 
  49   0.0000       0.155718         4.2373 
  50   0.0000       0.155720         4.2374 
  51   0.0000       0.167183         4.5493 
  52   0.0000       0.180772         4.9190 
  53   0.0000       0.180842         4.9210 
  54   0.0000       0.195039         5.3073 
  55   0.0000       0.197260         5.3677 
  56   0.0000       0.197290         5.3685 
  57   0.0000       0.225507         6.1363 
  58   0.0000       0.225610         6.1391 
  59   0.0000       0.281886         7.6705 
  60   0.0000       0.305685         8.3181 
  61   0.0000       0.305692         8.3183 
  62   0.0000       0.341657         9.2970 
  63   0.0000       0.481805        13.1106 
  64   0.0000       0.481808        13.1107 
  65   0.0000       0.505006        13.7419 
  66   0.0000       0.505007        13.7419 
  67   0.0000       0.549237        14.9455 
  68   0.0000       0.549612        14.9557 
  69   0.0000       0.566681        15.4202 
  70   0.0000       0.566955        15.4276 
  71   0.0000       0.566981        15.4283 
  72   0.0000       0.596636        16.2353 
  73   0.0000       0.646252        17.5854 
  74   0.0000       0.646262        17.5857 
  75   0.0000       0.651548        17.7295 
  76   0.0000       0.652288        17.7497 
  77   0.0000       0.653424        17.7806 
  78   0.0000       0.701921        19.1002 
  79   0.0000       0.701976        19.1017 
  80   0.0000       0.728944        19.8356 
  81   0.0000       0.775001        21.0888 
  82   0.0000       0.775043        21.0900 
  83   0.0000       0.812574        22.1113 
  84   0.0000       0.842653        22.9297 
  85   0.0000       0.842653        22.9297 
  86   0.0000       0.844969        22.9928 
  87   0.0000       0.844980        22.9931 
  88   0.0000       0.972764        26.4703 
  89   0.0000       0.973164        26.4811 
  90   0.0000       1.046520        28.4773 
  91   0.0000       1.259671        34.2774 
  92   0.0000       1.259695        34.2781 
  93   0.0000       1.437776        39.1239 
  94   0.0000       1.727884        47.0181 
  95   0.0000       1.741078        47.3771 
  96   0.0000       1.741078        47.3771 
  97   0.0000       1.761620        47.9361 
  98   0.0000       1.761696        47.9382 
  99   0.0000       1.785827        48.5948 
 100   0.0000       1.785873        48.5961 
 101   0.0000       1.829997        49.7967 
 102   0.0000       1.937341        52.7177 
 103   0.0000       1.937342        52.7178 
 104   0.0000       2.031038        55.2674 
 105   0.0000       2.031266        55.2736 
 106   0.0000       2.034995        55.3750 
 107   0.0000       2.090493        56.8852 
 108   0.0000       2.090494        56.8852 
 109   0.0000       2.121951        57.7412 
 110   0.0000       2.143231        58.3203 
 111   0.0000       2.143242        58.3206 
 112   0.0000       2.158720        58.7418 
 113   0.0000       2.159014        58.7498 
 114   0.0000       2.164604        58.9019 
 115   0.0000       2.164651        58.9032 
 116   0.0000       2.185491        59.4702 
 117   0.0000       2.185501        59.4705 
 118   0.0000       2.187151        59.5154 
 119   0.0000       2.187153        59.5155 
 120   0.0000       2.280081        62.0442 
 121   0.0000       2.280271        62.0493 
 122   0.0000       2.316690        63.0403 
 123   0.0000       2.316694        63.0404 
 124   0.0000       2.381145        64.7942 
 125   0.0000       2.567581        69.8674 
 126   0.0000       2.585114        70.3445 
 127   0.0000       2.585127        70.3449 
 128   0.0000       2.922324        79.5205 
 129   0.0000       3.286596        89.4328 
 130   0.0000       3.286623        89.4336 
 131   0.0000       3.470316        94.4321 
 132   0.0000       3.470382        94.4339 
 133   0.0000       4.119192       112.0889 
 134   0.0000       4.375217       119.0557 
 135   0.0000       6.139158       167.0550 
 136   0.0000       6.139158       167.0550 
 137   0.0000       6.141558       167.1203 
 138   0.0000       6.141587       167.1211 
 139   0.0000       6.186971       168.3560 
 140   0.0000       6.187018       168.3573 
 141   0.0000       6.344651       172.6467 
 142   0.0000       6.682360       181.8363 
 143   0.0000       6.682361       181.8363 
 144   0.0000       6.692694       182.1175 
 145   0.0000       6.693420       182.1372 
 146   0.0000       6.724854       182.9926 
 147   0.0000       6.724959       182.9954 
 148   0.0000       6.831162       185.8854 
 149   0.0000       6.831239       185.8875 
 150   0.0000       6.938653       188.8104 
 151   0.0000       7.756292       211.0594 

                 SPIN DOWN ORBITALS
  NO   OCC          E(Eh)            E(eV) 
   0   1.0000    -482.231569    -13122.1881 
   1   1.0000    -215.074623     -5852.4780 
   2   1.0000     -62.272020     -1694.5078 
   3   1.0000     -56.073950     -1525.8498 
   4   1.0000     -56.072678     -1525.8151 
   5   1.0000     -56.072678     -1525.8151 
   6   1.0000     -24.466819      -665.7760 
   7   1.0000     -20.735960      -564.2542 
   8   1.0000     -20.729665      -564.0829 
   9   1.0000     -20.729604      -564.0812 
  10   1.0000      -8.619407      -234.5460 
  11   1.0000      -6.408044      -174.3718 
  12   1.0000      -6.403833      -174.2572 
  13   1.0000      -6.403832      -174.2571 
  14   1.0000      -2.710955       -73.7688 
  15   1.0000      -2.487288       -67.6826 
  16   1.0000      -2.486142       -67.6514 
  17   1.0000      -2.486142       -67.6514 
  18   1.0000      -2.482759       -67.5593 
  19   1.0000      -2.482706       -67.5579 
  20   1.0000      -1.660025       -45.1716 
  21   1.0000      -1.639544       -44.6143 
  22   1.0000      -1.639427       -44.6111 
  23   1.0000      -0.688158       -18.7257 
  24   1.0000      -0.288791        -7.8584 
  25   1.0000      -0.250766        -6.8237 
  26   1.0000      -0.250766        -6.8237 
  27   0.0000      -0.064101        -1.7443 
  28   0.0000      -0.038118        -1.0372 
  29   0.0000      -0.022332        -0.6077 
  30   0.0000      -0.022326        -0.6075 
  31   0.0000      -0.015403        -0.4191 
  32   0.0000      -0.015391        -0.4188 
  33   0.0000       0.008292         0.2256 
  34   0.0000       0.008293         0.2257 
  35   0.0000       0.018628         0.5069 
  36   0.0000       0.024072         0.6550 
  37   0.0000       0.047695         1.2978 
  38   0.0000       0.047699         1.2979 
  39   0.0000       0.060163         1.6371 
  40   0.0000       0.063771         1.7353 
  41   0.0000       0.063775         1.7354 
  42   0.0000       0.068032         1.8513 
  43   0.0000       0.068034         1.8513 
  44   0.0000       0.075904         2.0654 
  45   0.0000       0.120066         3.2672 
  46   0.0000       0.123668         3.3652 
  47   0.0000       0.123668         3.3652 
  48   0.0000       0.153212         4.1691 
  49   0.0000       0.183662         4.9977 
  50   0.0000       0.183664         4.9977 
  51   0.0000       0.200379         5.4526 
  52   0.0000       0.205457         5.5908 
  53   0.0000       0.205479         5.5914 
  54   0.0000       0.207967         5.6591 
  55   0.0000       0.237354         6.4587 
  56   0.0000       0.237357         6.4588 
  57   0.0000       0.260384         7.0854 
  58   0.0000       0.260422         7.0864 
  59   0.0000       0.304046         8.2735 
  60   0.0000       0.320610         8.7242 
  61   0.0000       0.320614         8.7244 
  62   0.0000       0.367813        10.0087 
  63   0.0000       0.497230        13.5303 
  64   0.0000       0.497232        13.5304 
  65   0.0000       0.578993        15.7552 
  66   0.0000       0.578993        15.7552 
  67   0.0000       0.598112        16.2754 
  68   0.0000       0.598185        16.2775 
  69   0.0000       0.608571        16.5600 
  70   0.0000       0.620746        16.8913 
  71   0.0000       0.623677        16.9711 
  72   0.0000       0.623679        16.9712 
  73   0.0000       0.660520        17.9737 
  74   0.0000       0.660665        17.9776 
  75   0.0000       0.705536        19.1986 
  76   0.0000       0.717293        19.5185 
  77   0.0000       0.717299        19.5187 
  78   0.0000       0.768987        20.9252 
  79   0.0000       0.768997        20.9255 
  80   0.0000       0.777778        21.1644 
  81   0.0000       0.843097        22.9418 
  82   0.0000       0.855652        23.2835 
  83   0.0000       0.855652        23.2835 
  84   0.0000       0.888540        24.1784 
  85   0.0000       0.888556        24.1788 
  86   0.0000       0.891347        24.2548 
  87   0.0000       0.891353        24.2550 
  88   0.0000       1.009731        27.4762 
  89   0.0000       1.010091        27.4860 
  90   0.0000       1.102604        30.0034 
  91   0.0000       1.311210        35.6798 
  92   0.0000       1.311223        35.6802 
  93   0.0000       1.513952        41.1967 
  94   0.0000       1.806114        49.1469 
  95   0.0000       1.874585        51.0101 
  96   0.0000       1.874591        51.0102 
  97   0.0000       1.932369        52.5824 
  98   0.0000       1.932417        52.5837 
  99   0.0000       1.934057        52.6284 
 100   0.0000       1.934057        52.6284 
 101   0.0000       1.936897        52.7056 
 102   0.0000       1.976309        53.7781 
 103   0.0000       1.976316        53.7783 
 104   0.0000       2.047237        55.7081 
 105   0.0000       2.047266        55.7089 
 106   0.0000       2.050992        55.8103 
 107   0.0000       2.106908        57.3319 
 108   0.0000       2.106908        57.3319 
 109   0.0000       2.172729        59.1230 
 110   0.0000       2.173462        59.1429 
 111   0.0000       2.184913        59.4545 
 112   0.0000       2.192457        59.6598 
 113   0.0000       2.192469        59.6601 
 114   0.0000       2.200501        59.8787 
 115   0.0000       2.200505        59.8788 
 116   0.0000       2.304660        62.7130 
 117   0.0000       2.304924        62.7202 
 118   0.0000       2.308318        62.8125 
 119   0.0000       2.308318        62.8125 
 120   0.0000       2.401956        65.3605 
 121   0.0000       2.402006        65.3619 
 122   0.0000       2.432113        66.1811 
 123   0.0000       2.432148        66.1821 
 124   0.0000       2.478139        67.4336 
 125   0.0000       2.629184        71.5437 
 126   0.0000       2.683330        73.0171 
 127   0.0000       2.683348        73.0176 
 128   0.0000       3.015351        82.0519 
 129   0.0000       3.442546        93.6764 
 130   0.0000       3.442577        93.6773 
 131   0.0000       3.638120        98.9983 
 132   0.0000       3.638128        98.9985 
 133   0.0000       4.189152       113.9926 
 134   0.0000       4.437719       120.7565 
 135   0.0000       6.371182       173.3687 
 136   0.0000       6.371182       173.3687 
 137   0.0000       6.379893       173.6057 
 138   0.0000       6.379929       173.6067 
 139   0.0000       6.415377       174.5713 
 140   0.0000       6.415425       174.5726 
 141   0.0000       6.543899       178.0685 
 142   0.0000       6.912022       188.0857 
 143   0.0000       6.912947       188.1109 
 144   0.0000       6.915606       188.1832 
 145   0.0000       6.915607       188.1832 
 146   0.0000       6.936541       188.7529 
 147   0.0000       6.936809       188.7602 
 148   0.0000       7.043863       191.6733 
 149   0.0000       7.043870       191.6735 
 150   0.0000       7.127934       193.9609 
 151   0.0000       7.963270       216.6916 

                    ********************************
                    * MULLIKEN POPULATION ANALYSIS *
                    ********************************

--------------------------------------------
MULLIKEN ATOMIC CHARGES AND SPIN POPULATIONS
--------------------------------------------
   0 Cr:    0.219151    5.196732
   1 Br:   -0.219151   -0.196732
Sum of atomic charges         :   -0.0000000
Sum of atomic spin populations:    5.0000000

-----------------------------------------------------
MULLIKEN REDUCED ORBITAL CHARGES AND SPIN POPULATIONS
-----------------------------------------------------
CHARGE
  0 Crs       :     6.765477  s :     6.765477
      pz      :     4.114893  p :    12.223269
      px      :     4.054178
      py      :     4.054198
      dz2     :     0.721961  d :     4.767326
      dxz     :     1.023708
      dyz     :     1.023688
      dx2y2   :     0.998979
      dxy     :     0.998990
      f0      :     0.008042  f :     0.023036
      f+1     :     0.007407
      f-1     :     0.007406
      f+2     :     0.000090
      f-2     :     0.000091
      f+3     :     0.000000
      f-3     :     0.000000
      g0      :     0.000763  g :     0.001741
      g+1     :     0.000486
      g-1     :     0.000486
      g+2     :     0.000003
      g-2     :     0.000003
      g+3     :     0.000000
      g-3     :     0.000000
      g+4     :     0.000000
      g-4     :     0.000000
  1 Brs       :     7.903257  s :     7.903257
      pz      :     5.484953  p :    17.296025
      px      :     5.905537
      py      :     5.905534
      dz2     :     2.000744  d :    10.017200
      dxz     :     2.007622
      dyz     :     2.007626
      dx2y2   :     2.000608
      dxy     :     2.000599
      f0      :    -0.000091  f :     0.002669
      f+1     :     0.001060
      f-1     :     0.001061
      f+2     :     0.000321
      f-2     :     0.000317
      f+3     :     0.000000
      f-3     :     0.000000

SPIN
  0 Crs       :     0.620788  s :     0.620788
      pz      :     0.022954  p :     0.078420
      px      :     0.027725
      py      :     0.027742
      dz2     :     0.584628  d :     4.499375
      dxz     :     0.958402
      dyz     :     0.958378
      dx2y2   :     0.998978
      dxy     :     0.998990
      f0      :    -0.000196  f :    -0.001629
      f+1     :    -0.000803
      f-1     :    -0.000804
      f+2     :     0.000086
      f-2     :     0.000087
      f+3     :     0.000000
      f-3     :     0.000000
      g0      :    -0.000075  g :    -0.000223
      g+1     :    -0.000076
      g-1     :    -0.000076
      g+2     :     0.000002
      g-2     :     0.000002
      g+3     :    -0.000000
      g-3     :    -0.000000
      g+4     :     0.000000
      g-4     :     0.000000
  1 Brs       :    -0.023168  s :    -0.023168
      pz      :    -0.203577  p :    -0.179924
      px      :     0.011825
      py      :     0.011828
      dz2     :    -0.001306  d :     0.005480
      dxz     :     0.002783
      dyz     :     0.002788
      dx2y2   :     0.000612
      dxy     :     0.000604
      f0      :    -0.000047  f :     0.000880
      f+1     :     0.000144
      f-1     :     0.000145
      f+2     :     0.000321
      f-2     :     0.000317
      f+3     :     0.000000
      f-3     :     0.000000


                     *******************************
                     * LOEWDIN POPULATION ANALYSIS *
                     *******************************

-------------------------------------------
LOEWDIN ATOMIC CHARGES AND SPIN POPULATIONS
-------------------------------------------
   0 Cr:   -0.086832    4.924739
   1 Br:    0.086832    0.075261

----------------------------------------------------
LOEWDIN REDUCED ORBITAL CHARGES AND SPIN POPULATIONS
----------------------------------------------------
CHARGE
  0 Crs       :     6.522738  s :     6.522738
      pz      :     4.197689  p :    12.365994
      px      :     4.084138
      py      :     4.084167
      dz2     :     0.848657  d :     4.979507
      dxz     :     1.071216
      dyz     :     1.071196
      dx2y2   :     0.994215
      dxy     :     0.994223
      f0      :     0.074556  f :     0.206310
      f+1     :     0.065575
      f-1     :     0.065573
      f+2     :     0.000302
      f-2     :     0.000304
      f+3     :     0.000000
      f-3     :     0.000000
      g0      :     0.005304  g :     0.012281
      g+1     :     0.003481
      g-1     :     0.003481
      g+2     :     0.000008
      g-2     :     0.000008
      g+3     :     0.000000
      g-3     :     0.000000
      g+4     :     0.000000
      g-4     :     0.000000
  1 Brs       :     7.593275  s :     7.593275
      pz      :     5.612823  p :    17.059474
      px      :     5.723330
      py      :     5.723321
      dz2     :     2.102595  d :    10.171062
      dxz     :     2.031510
      dyz     :     2.031512
      dx2y2   :     2.002726
      dxy     :     2.002719
      f0      :     0.042363  f :     0.089358
      f+1     :     0.020750
      f-1     :     0.020750
      f+2     :     0.002749
      f-2     :     0.002747
      f+3     :     0.000000
      f-3     :     0.000000

SPIN
  0 Crs       :     0.467004  s :     0.467004
      pz      :    -0.004689  p :     0.071482
      px      :     0.038071
      py      :     0.038100
      dz2     :     0.561482  d :     4.384340
      dxz     :     0.917224
      dyz     :     0.917201
      dx2y2   :     0.994212
      dxy     :     0.994220
      f0      :    -0.001439  f :     0.002256
      f+1     :     0.001563
      f-1     :     0.001562
      f+2     :     0.000285
      f-2     :     0.000286
      f+3     :     0.000000
      f-3     :     0.000000
      g0      :    -0.000419  g :    -0.000343
      g+1     :     0.000030
      g-1     :     0.000030
      g+2     :     0.000008
      g-2     :     0.000008
      g+3     :    -0.000000
      g-3     :    -0.000000
      g+4     :     0.000000
      g-4     :     0.000000
  1 Brs       :     0.016844  s :     0.016844
      pz      :    -0.053685  p :    -0.032538
      px      :     0.010576
      py      :     0.010571
      dz2     :     0.013302  d :     0.056900
      dxz     :     0.019055
      dyz     :     0.019056
      dx2y2   :     0.002747
      dxy     :     0.002740
      f0      :     0.001600  f :     0.034055
      f+1     :     0.013481
      f-1     :     0.013480
      f+2     :     0.002748
      f-2     :     0.002746
      f+3     :     0.000000
      f-3     :     0.000000


                      *****************************
                      * MAYER POPULATION ANALYSIS *
                      *****************************

  NA   - Mulliken gross atomic population
  ZA   - Total nuclear charge
  QA   - Mulliken gross atomic charge
  VA   - Mayer's total valence
  BVA  - Mayer's bonded valence
  FA   - Mayer's free valence

  ATOM       NA         ZA         QA         VA         BVA        FA
  0 Cr    23.7808    24.0000     0.2192     6.0912     1.1410     4.9502
  1 Br    35.2192    35.0000    -0.2192     1.1807     1.1410     0.0397

  Mayer bond orders larger than 0.100000
B(  0-Cr,  1-Br) :   1.1410 

-------
TIMINGS
-------

Total SCF time: 0 days 0 hours 0 min 7 sec 

Total time                  ....       7.644 sec
Sum of individual times     ....       7.438 sec  ( 97.3%)

Fock matrix formation       ....       6.834 sec  ( 89.4%)
  Split-RI-J                ....       4.672 sec  ( 68.4% of F)
  XC integration            ....       1.987 sec  ( 29.1% of F)
    Basis function eval.    ....       0.226 sec  ( 11.4% of XC)
    Density eval.           ....       0.236 sec  ( 11.9% of XC)
    XC-Functional eval.     ....       0.040 sec  (  2.0% of XC)
    XC-Potential eval.      ....       0.635 sec  ( 31.9% of XC)
Diagonalization             ....       0.182 sec  (  2.4%)
Density matrix formation    ....       0.022 sec  (  0.3%)
Population analysis         ....       0.007 sec  (  0.1%)
Initial guess               ....       0.121 sec  (  1.6%)
Orbital Transformation      ....       0.000 sec  (  0.0%)
Orbital Orthonormalization  ....       0.000 sec  (  0.0%)
DIIS solution               ....       0.072 sec  (  0.9%)
Grid generation             ....       0.200 sec  (  2.6%)


-------------------------------------------------------------------------------
                          DFT DISPERSION CORRECTION                            
                                                                               
                              DFTD3 V3.1  Rev 1                                
                          USING Becke-Johnson damping                          
-------------------------------------------------------------------------------
The SCAN functional is recognized
Active option DFTDOPT                   ...         4   

molecular C6(AA) [au] = 1000.724547 


            DFT-D V3
 parameters
 s6 scaling factor         :     1.0000 
 a1 scaling factor         :     0.5380 
 s8 scaling factor         :     0.0000 
 a2 scaling factor         :     5.4200 
 ad hoc parameters k1-k3   :    16.0000     1.3333    -4.0000 

 Edisp/kcal,au: -0.134830027979  -0.000214865304 
 E6   /kcal   :  -0.134830028 
 E8   /kcal   :  -0.000000000 
 % E8         :   0.000000000 

-------------------------   ----------------
Dispersion correction           -0.000214865
-------------------------   ----------------


-------------------------   --------------------
FINAL SINGLE POINT ENERGY     -3619.174476530067
-------------------------   --------------------


                            ***************************************
                            *     ORCA property calculations      *
                            ***************************************

                                    ---------------------
                                    Active property flags
                                    ---------------------
   (+) Dipole Moment


------------------------------------------------------------------------------
                       ORCA ELECTRIC PROPERTIES CALCULATION
------------------------------------------------------------------------------

Dipole Moment Calculation                       ... on
Quadrupole Moment Calculation                   ... off
Polarizability Calculation                      ... off
GBWName                                         ... 22_CrBr.gbw
Electron density file                           ... 22_CrBr.scfp
The origin for moment calculation is the CENTER OF MASS  = ( 0.000000,  0.000000  2.358196)

-------------
DIPOLE MOMENT
-------------
                                X             Y             Z
Electronic contribution:      0.00000       0.00000       1.39575
Nuclear contribution   :      0.00000       0.00000      -3.27761
                        -----------------------------------------
Total Dipole Moment    :      0.00000       0.00000      -1.88186
                        -----------------------------------------
Magnitude (a.u.)       :      1.88186
Magnitude (Debye)      :      4.78330



--------------------
Rotational spectrum 
--------------------
 
Rotational constants in cm-1:     0.000000     0.097406     0.097406 
Rotational constants in MHz :     0.000000  2920.152240  2920.152240 

 Dipole components along the rotational axes: 
x,y,z [a.u.] :    -1.881857     0.000001     0.000000 
x,y,z [Debye]:    -4.783301     0.000002     0.000000 

 

Timings for individual modules:

Sum of individual times         ...       12.409 sec (=   0.207 min)
GTO integral calculation        ...        4.424 sec (=   0.074 min)  35.7 %
SCF iterations                  ...        7.985 sec (=   0.133 min)  64.3 %
                             ****ORCA TERMINATED NORMALLY****
TOTAL RUN TIME: 0 days 0 hours 0 minutes 13 seconds 0 msec
