
                                 *****************
                                 * O   R   C   A *
                                 *****************

           --- An Ab Initio, DFT and Semiempirical electronic structure package ---

                  #######################################################
                  #                        -***-                        #
                  #          Department of theory and spectroscopy      #
                  #               Directorship: Frank Neese             #
                  #        Max Planck Institute fuer Kohlenforschung    #
                  #                Kaiser Wilhelm Platz 1               #
                  #                 D-45470 Muelheim/Ruhr               #
                  #                      Germany                        #
                  #                                                     #
                  #                  All rights reserved                #
                  #                        -***-                        #
                  #######################################################


                         Program Version 4.2.0 -  RELEASE  -


 With contributions from (in alphabetic order):
   Daniel Aravena         : Magnetic Suceptibility
   Michael Atanasov       : Ab Initio Ligand Field Theory (pilot matlab implementation)
   Alexander A. Auer      : GIAO ZORA, VPT2
   Ute Becker             : Parallelization
   Giovanni Bistoni       : ED, misc. LED, open-shell LED, HFLED
   Martin Brehm           : Molecular dynamics
   Dmytro Bykov           : SCF Hessian
   Vijay G. Chilkuri      : MRCI spin determinant printing, contributions to CSF-ICE
   Dipayan Datta          : RHF DLPNO-CCSD density
   Achintya Kumar Dutta   : EOM-CC, STEOM-CC
   Dmitry Ganyushin       : Spin-Orbit,Spin-Spin,Magnetic field MRCI
   Miquel Garcia          : C-PCM Hessian, Gaussian charge scheme
   Yang Guo               : DLPNO-NEVPT2, CIM, IAO-localization
   Andreas Hansen         : Spin unrestricted coupled pair/coupled cluster methods
   Benjamin Helmich-Paris : CASSCF linear response (MC-RPA)
   Lee Huntington         : MR-EOM, pCC
   Robert Izsak           : Overlap fitted RIJCOSX, COSX-SCS-MP3, EOM
   Christian Kollmar      : KDIIS, OOCD, Brueckner-CCSD(T), CCSD density
   Simone Kossmann        : Meta GGA functionals, TD-DFT gradient, OOMP2, MP2 Hessian
   Martin Krupicka        : AUTO-CI
   Lucas Lang             : DCDCAS
   Dagmar Lenk            : GEPOL surface, SMD
   Dimitrios Liakos       : Extrapolation schemes; Compound Job, initial MDCI parallelization
   Dimitrios Manganas     : Further ROCIS development; embedding schemes
   Dimitrios Pantazis     : SARC Basis sets
   Taras Petrenko         : DFT Hessian,TD-DFT gradient, ASA, ECA, R-Raman, ABS, FL, XAS/XES, NRVS
   Peter Pinski           : DLPNO-MP2, DLPNO-MP2 Gradient
   Christoph Reimann      : Effective Core Potentials
   Marius Retegan         : Local ZFS, SOC
   Christoph Riplinger    : Optimizer, TS searches, QM/MM, DLPNO-CCSD(T), (RO)-DLPNO pert. Triples
   Tobias Risthaus        : Range-separated hybrids, TD-DFT gradient, RPA, STAB
   Michael Roemelt        : Original ROCIS implementation
   Masaaki Saitow         : Open-shell DLPNO-CCSD energy and density
   Barbara Sandhoefer     : DKH picture change effects
   Avijit Sen             : IP-ROCIS
   Kantharuban Sivalingam : CASSCF convergence, NEVPT2, FIC-MRCI
   Bernardo de Souza      : ESD, SOC TD-DFT
   Georgi Stoychev        : AutoAux, RI-MP2 NMR
   Willem Van den Heuvel  : Paramagnetic NMR
   Boris Wezisla          : Elementary symmetry handling
   Frank Wennmohs         : Technical directorship


 We gratefully acknowledge several colleagues who have allowed us to
 interface, adapt or use parts of their codes:
   Stefan Grimme, W. Hujo, H. Kruse,             : VdW corrections, initial TS optimization,
                  C. Bannwarth                     DFT functionals, gCP, sTDA/sTD-DF
   Ed Valeev, F. Pavosevic, A. Kumar             : LibInt (2-el integral package), F12 methods
   Garnet Chan, S. Sharma, J. Yang, R. Olivares  : DMRG
   Ulf Ekstrom                                   : XCFun DFT Library
   Mihaly Kallay                                 : mrcc  (arbitrary order and MRCC methods)
   Andreas Klamt, Michael Diedenhofen            : otool_cosmo (COSMO solvation model)
   Jiri Pittner, Ondrej Demel                    : Mk-CCSD
   Frank Weinhold                                : gennbo (NPA and NBO analysis)
   Christopher J. Cramer and Donald G. Truhlar   : smd solvation model
   Lars Goerigk                                  : TD-DFT with DH, B97 family of functionals
   V. Asgeirsson, H. Jonsson                     : NEB implementation
   FAccTs GmbH                                   : IRC, NEB, NEB-TS, Multilevel, MM, QM/MM, CI optimization
   S Lehtola, MJT Oliveira, MAL Marques          : LibXC Library


 Your calculation uses the libint2 library for the computation of 2-el integrals
 For citations please refer to: http://libint.valeyev.net

 Your ORCA version has been built with support for libXC version: 4.2.3
 For citations please refer to: https://tddft.org/programs/libxc/

 This ORCA versions uses:
   CBLAS   interface :  Fast vector & matrix operations
   LAPACKE interface :  Fast linear algebra routines
   SCALAPACK package :  Parallel linear algebra routines


Your calculation utilizes the atom-pairwise dispersion correction
with the Becke-Johnson damping scheme (D3BJ)
Cite in your paper:
S.Grimme, S.Ehrlich, L.Goerigk, J Comput Chem, (2011), 32, 1456–1465 
S.Grimme, J.Antony, S.Ehrlich and H.Krieg, J.Chem.Phys., 132, (2010), 154104 
   

----- Orbital basis set information -----
Your calculation utilizes the basis: aug-cc-pVTZ 
    H, B-Ne : Obtained from the ccRepo (grant-hill.group.shef.ac.uk/ccrepo) Feb. 2017
              R. A. Kendall, T. H. Dunning, Jr., R. J. Harrison, J. Chem. Phys. 96, 6796 (1992)
         He : Obtained from the ccRepo (grant-hill.group.shef.ac.uk/ccrepo) Feb. 2017
              D. E. Woon, T. H. Dunning, Jr., J. Chem. Phys. 100, 2975 (1994)
  Li-Be, Na : Obtained from the ccRepo (grant-hill.group.shef.ac.uk/ccrepo) Feb. 2017
              B. P. Prascher, D. E. Woon, K. A. Peterson, T. H. Dunning, Jr., A. K. Wilson, Theor. Chem. Acc. 128, 69 (2011)
         Mg : Obtained from the Peterson Research Group Website (tyr0.chem.wsu.edu/~kipeters) Feb. 2017
              B. P. Prascher, D. E. Woon, K. A. Peterson, T. H. Dunning, Jr., A. K. Wilson, Theor. Chem. Acc. 128, 69 (2011)
      Al-Ar : Obtained from the ccRepo (grant-hill.group.shef.ac.uk/ccrepo) Feb. 2017
              D. E. Woon, T. H. Dunning, Jr., J. Chem. Phys. 98, 1358 (1993)
      Sc-Zn : Obtained from the ccRepo (grant-hill.group.shef.ac.uk/ccrepo) Feb. 2017
              N. B. Balabanov, K. A. Peterson, J. Chem. Phys. 123, 064107 (2005)
              N. B. Balabanov, K. A. Peterson, J. Chem. Phys. 125, 074110 (2006)
      Ga-Kr : Obtained from the ccRepo (grant-hill.group.shef.ac.uk/ccrepo) Feb. 2017
              A. K. Wilson, D. E. Woon, K. A. Peterson, T. H. Dunning, Jr., J. Chem. Phys. 110, 7667 (1999)
     Ag, Au : Obtained from the Peterson Research Group Website (tyr0.chem.wsu.edu/~kipeters) Feb. 2017
              K. A. Peterson, C. Puzzarini, Theor. Chem. Acc. 114, 283 (2005)

----- AuxJ basis set information -----
Your calculation utilizes the auxiliary basis: def2/J
   F. Weigend, Phys. Chem. Chem. Phys. 8, 1057 (2006).

================================================================================
                                        WARNINGS
                       Please study these warnings very carefully!
================================================================================


WARNING: your system is open-shell and RHF/RKS was chosen
  ===> : WILL SWITCH to UHF/UKS


WARNING: The SCAN functional is very grid-sensitive!
         Use at least GRID5 and a higher intacc

INFO   : the flag for use of LIBINT has been found!

================================================================================
                                       INPUT FILE
================================================================================
NAME = 24_CrS.in
|  1> #
|  2> # 24_CrS scanfunc/aug-cc-pvtz
|  3> #
|  4> ! scanfunc d3bj aug-cc-pvtz def2/j grid4 nofinalgrid
|  5> 
|  6> *xyz 0 5
|  7>   Cr  0.00000000000000      0.00000000000000     -0.04064132858643
|  8>   S   0.00000000000000      0.00000000000000      2.04064132858643
|  9> *
| 10> 
| 11> %pal
| 12> nprocs 24
| 13> end
| 14> 
| 15> 
| 16>                          ****END OF INPUT****
================================================================================

                       ****************************
                       * Single Point Calculation *
                       ****************************

---------------------------------
CARTESIAN COORDINATES (ANGSTROEM)
---------------------------------
  Cr     0.000000    0.000000   -0.040641
  S      0.000000    0.000000    2.040641

----------------------------
CARTESIAN COORDINATES (A.U.)
----------------------------
  NO LB      ZA    FRAG     MASS         X           Y           Z
   0 Cr   24.0000    0    52.000    0.000000    0.000000   -0.076801
   1 S    16.0000    0    32.060    0.000000    0.000000    3.856253

--------------------------------
INTERNAL COORDINATES (ANGSTROEM)
--------------------------------
 Cr     0   0   0     0.000000000000     0.00000000     0.00000000
 S      1   0   0     2.081282657173     0.00000000     0.00000000

---------------------------
INTERNAL COORDINATES (A.U.)
---------------------------
 Cr     0   0   0     0.000000000000     0.00000000     0.00000000
 S      1   0   0     3.933054229337     0.00000000     0.00000000

---------------------
BASIS SET INFORMATION
---------------------
There are 2 groups of distinct atoms

 Group   1 Type Cr  : 116s77p23d3f2g contracted to 8s7p5d3f2g pattern {19191919191911/151515151511/77711/111/11}
 Group   2 Type S   : 42s17p3d2f contracted to 6s5p3d2f pattern {131313111/77111/111/11}

Atom   0Cr   basis set group =>   1
Atom   1S    basis set group =>   2
---------------------------------
AUXILIARY/J BASIS SET INFORMATION
---------------------------------
There are 2 groups of distinct atoms

 Group   1 Type Cr  : 19s5p5d3f3g contracted to 8s5p5d2f3g pattern {121111111/11111/11111/21/111}
 Group   2 Type S   : 14s5p5d2f1g contracted to 8s4p3d1f1g pattern {71111111/2111/311/2/1}

Atom   0Cr   basis set group =>   1
Atom   1S    basis set group =>   2


           ************************************************************
           *        Program running with 24 parallel MPI-processes    *
           *              working on a common directory               *
           ************************************************************
------------------------------------------------------------------------------
                           ORCA GTO INTEGRAL CALCULATION
                           -- RI-GTO INTEGRALS CHOSEN --
------------------------------------------------------------------------------

                         BASIS SET STATISTICS AND STARTUP INFO

Gaussian basis set:
 # of primitive gaussian shells          ...  285
 # of primitive gaussian functions       ...  623
 # of contracted shells                  ...   41
 # of contracted basis functions         ...  143
 Highest angular momentum                ...    4
 Maximum contraction depth               ...   19
Auxiliary gaussian basis set:
 # of primitive gaussian shells          ...   62
 # of primitive gaussian functions       ...  184
 # of contracted shells                  ...   40
 # of contracted aux-basis functions     ...  140
 Highest angular momentum                ...    4
 Maximum contraction depth               ...   12
Ratio of auxiliary to basis functions    ...  0.98
Integral package used                  ... LIBINT
 One Electron integrals                  ... done
 Ordering auxiliary basis shells         ... done
 Integral threshhold             Thresh  ...  1.000e-10
 Primitive cut-off               TCut    ...  1.000e-11
 Pre-screening matrix                    ... done
 Shell pair data                         ... 
 Ordering of the shell pairs             ... done (   0.000 sec) 861 of 861 pairs
 Determination of significant pairs      ... done (   0.000 sec)
 Creation of shell pair data             ... done (   0.001 sec)
 Storage of shell pair data              ... done (   0.011 sec)
 Shell pair data done in (   0.013 sec)
 Computing two index integrals           ... done
 Cholesky decomposition of the V-matrix  ... done


Timings:
 Total evaluation time                   ...   2.666 sec (  0.044 min)
 One electron matrix time                ...   0.050 sec (  0.001 min) =  1.9%
 Schwartz matrix evaluation time         ...   2.566 sec (  0.043 min) = 96.2%
 Two index repulsion integral time       ...   0.001 sec (  0.000 min) =  0.0%
 Cholesky decomposition of V             ...   0.002 sec (  0.000 min) =  0.1%
 Three index repulsion integral time     ...   0.000 sec (  0.000 min) =  0.0%



           ************************************************************
           *        Program running with 24 parallel MPI-processes    *
           *              working on a common directory               *
           ************************************************************
-------------------------------------------------------------------------------
                                 ORCA SCF
-------------------------------------------------------------------------------

------------
SCF SETTINGS
------------
Hamiltonian:
 Density Functional     Method          .... DFT(GTOs)
 Exchange Functional    Exchange        .... SCAN
 Correlation Functional Correlation     .... SCAN
 Gradients option       PostSCFGGA      .... off
   Density functional embedding theory  .... OFF
   NL short-range parameter             ....  6.400000
 RI-approximation to the Coulomb term is turned on
   Number of auxiliary basis functions  .... 140


General Settings:
 Integral files         IntName         .... 24_CrS
 Hartree-Fock type      HFTyp           .... UHF
 Total Charge           Charge          ....    0
 Multiplicity           Mult            ....    5
 Number of Electrons    NEL             ....   40
 Basis Dimension        Dim             ....  143
 Nuclear Repulsion      ENuc            ....     97.6340466235 Eh

Convergence Acceleration:
 DIIS                   CNVDIIS         .... on
   Start iteration      DIISMaxIt       ....    12
   Startup error        DIISStart       ....  0.200000
   # of expansion vecs  DIISMaxEq       ....     5
   Bias factor          DIISBfac        ....   1.050
   Max. coefficient     DIISMaxC        ....  10.000
 Newton-Raphson         CNVNR           .... off
 SOSCF                  CNVSOSCF        .... off
 Level Shifting         CNVShift        .... on
   Level shift para.    LevelShift      ....    0.2500
   Turn off err/grad.   ShiftErr        ....    0.0010
 Zerner damping         CNVZerner       .... off
 Static damping         CNVDamp         .... on
   Fraction old density DampFac         ....    0.7000
   Max. Damping (<1)    DampMax         ....    0.9800
   Min. Damping (>=0)   DampMin         ....    0.0000
   Turn off err/grad.   DampErr         ....    0.1000
 Fernandez-Rico         CNVRico         .... off

SCF Procedure:
 Maximum # iterations   MaxIter         ....   125
 SCF integral mode      SCFMode         .... Direct
   Integral package                     .... LIBINT
 Reset frequency        DirectResetFreq ....    20
 Integral Threshold     Thresh          ....  1.000e-10 Eh
 Primitive CutOff       TCut            ....  1.000e-11 Eh

Convergence Tolerance:
 Convergence Check Mode ConvCheckMode   .... Total+1el-Energy
 Convergence forced     ConvForced      .... 0
 Energy Change          TolE            ....  1.000e-06 Eh
 1-El. energy change                    ....  1.000e-03 Eh
 DIIS Error             TolErr          ....  1.000e-06


Diagonalization of the overlap matrix:
Smallest eigenvalue                        ... 9.154e-05
Time for diagonalization                   ...    0.005 sec
Threshold for overlap eigenvalues          ... 1.000e-08
Number of eigenvalues below threshold      ... 0
Time for construction of square roots      ...    0.003 sec
Total time needed                          ...    0.008 sec

-------------------
DFT GRID GENERATION
-------------------

General Integration Accuracy     IntAcc      ...  4.670
Radial Grid Type                 RadialGrid  ... Gauss-Chebyshev
Angular Grid (max. acc.)         AngularGrid ... Lebedev-302
Angular grid pruning method      GridPruning ... 3 (G Style)
Weight generation scheme         WeightScheme... Becke
Basis function cutoff            BFCut       ...    1.0000e-10
Integration weight cutoff        WCut        ...    1.0000e-14
Grids for H and He will be reduced by one unit

# of grid points (after initial pruning)     ...  16510 (   0.0 sec)
# of grid points (after weights+screening)   ...  16481 (   0.0 sec)
nearest neighbour list constructed           ...    0.0 sec
Grid point re-assignment to atoms done       ...    0.0 sec
Grid point division into batches done        ...    0.1 sec
Reduced shell lists constructed in    0.1 sec

Total number of grid points                  ...    16481
Total number of batches                      ...      259
Average number of points per batch           ...       63
Average number of grid points per atom       ...     8240
Average number of shells per batch           ...    15.00 (36.59%)
Average number of basis functions per batch  ...    39.33 (27.51%)
Average number of large shells per batch     ...     8.00 (53.33%)
Average number of large basis fcns per batch ...    21.50 (54.66%)
Maximum spatial batch extension              ...  24.49, 24.19, 18.13 au
Average spatial batch extension              ...   0.84,  0.83,  0.65 au

Time for grid setup =    0.175 sec

------------------------------
INITIAL GUESS: MODEL POTENTIAL
------------------------------
Loading Hartree-Fock densities                     ... done
Calculating cut-offs                               ... done
Setting up the integral package                    ... done
Initializing the effective Hamiltonian             ... done
Starting the Coulomb interaction                   ... done (   0.0 sec)
Reading the grid                                   ... done
Mapping shells                                     ... done
Starting the XC term evaluation                    ... done (   0.0 sec)
  promolecular density results
     # of electrons  =     40.000003132
     EX              =    -81.267520536
     EC              =     -0.694499649
     EX+EC           =    -81.962020184
Transforming the Hamiltonian                       ... done (   0.0 sec)
Diagonalizing the Hamiltonian                      ... done (   0.0 sec)
Back transforming the eigenvectors                 ... done (   0.0 sec)
Now organizing SCF variables                       ... done
                      ------------------
                      INITIAL GUESS DONE (   0.3 sec)
                      ------------------
--------------
SCF ITERATIONS
--------------
ITER       Energy         Delta-E        Max-DP      RMS-DP      [F,P]     Damp
               ***  Starting incremental Fock matrix formation  ***
  0  -1442.3057583234   0.000000000000 0.45706089  0.00866892  0.5434714 0.7000
  1  -1442.5299919477  -0.224233624379 0.20876808  0.00418664  0.1175524 0.7000
                               ***Turning on DIIS***
  2  -1442.5519978723  -0.022005924589 0.14613766  0.00233636  0.1578848 0.7000
  3  -1442.6316572818  -0.079659409457 0.36771848  0.00798178  0.0605497 0.0000
  4  -1442.7228574135  -0.091200131696 0.01883086  0.00027363  0.2910025 0.7000
  5  -1442.7492260223  -0.026368608791 0.02695164  0.00034046  0.2455967 0.7000
  6  -1442.7778869459  -0.028660923642 0.02985858  0.00034264  0.1885589 0.7000
  7  -1442.8013011470  -0.023414201113 0.03133059  0.00034636  0.1335066 0.7000
  8  -1442.8185644832  -0.017263336164 0.10374667  0.00137075  0.0821975 0.0000
  9  -1442.8376596360  -0.019095152794 0.03562191  0.00066415  0.0466262 0.0000
 10  -1442.8407804731  -0.003120837119 0.02011137  0.00025151  0.0344414 0.0000
 11  -1442.8424932864  -0.001712813264 0.02206833  0.00025242  0.0222439 0.0000
 12  -1442.8436021060  -0.001108819651 0.01831005  0.00018966  0.0110312 0.0000
 13  -1442.8440971308  -0.000495024822 0.01293815  0.00012243  0.0056704 0.0000
 14  -1442.8443253054  -0.000228174531 0.00997608  0.00010315  0.0035079 0.0000
 15  -1442.8444562114  -0.000130906053 0.00882142  0.00011239  0.0029701 0.0000
 16  -1442.8445398242  -0.000083612793 0.00645173  0.00008282  0.0016154 0.0000
 17  -1442.8445833753  -0.000043551049 0.00433112  0.00005179  0.0011484 0.0000
 18  -1442.8446045832  -0.000021207934 0.97143112  0.00525985  0.0008865 0.0000
 19  -1442.7277343824   0.116870200786 0.00005630  0.00000060  0.2572522 0.7000
               *** Restarting incremental Fock matrix formation ***
                                   *** Resetting DIIS ***
 20  -1442.7277040973   0.000030285094 0.11164438  0.00241105  0.2572778 0.7000
 21  -1442.8228348005  -0.095130703149 0.20000642  0.00400915  0.0537920 0.0000
 22  -1442.6927746125   0.130060187983 0.02567806  0.00031220  0.2625418 0.7000
 23  -1442.7344753724  -0.041700759879 0.03373528  0.00036730  0.2342778 0.7000
 24  -1442.7788366355  -0.044361263115 0.03328186  0.00034999  0.1973100 0.7000
 25  -1442.8143164595  -0.035479824026 0.02836638  0.00027751  0.1601034 0.7000
 26  -1442.8378987664  -0.023582306898 0.02891022  0.00060108  0.1289263 0.7000
 27  -1442.8582092713  -0.020310504839 0.07743134  0.00103024  0.0939250 0.0000
 28  -1442.8848981005  -0.026688829230 0.00866696  0.00019779  0.0052120 0.0000
 29  -1442.8849892034  -0.000091102906 0.00648921  0.00013675  0.0073486 0.0000
 30  -1442.8850819773  -0.000092773880 0.00187011  0.00004065  0.0067341 0.0000
 31  -1442.8851705527  -0.000088575405 0.00156121  0.00003625  0.0049541 0.0000
 32  -1442.8852386951  -0.000068142438 0.00154114  0.00003544  0.0025963 0.0000
 33  -1442.8852724555  -0.000033760434 0.00469539  0.00006108  0.0003981 0.0000
 34  -1442.8852836482  -0.000011192616 0.00068298  0.00001373  0.0020328 0.0000
 35  -1442.8852903505  -0.000006702390 0.00040459  0.00000912  0.0014187 0.0000
 36  -1442.8852945440  -0.000004193435 0.00185563  0.00002295  0.0008420 0.0000
 37  -1442.8852993114  -0.000004767451 0.00117182  0.00001496  0.0003348 0.0000
 38  -1442.8853006423  -0.000001330894 0.00064187  0.00000789  0.0002053 0.0000
                 **** Energy Check signals convergence ****

               *****************************************************
               *                     SUCCESS                       *
               *           SCF CONVERGED AFTER  39 CYCLES          *
               *****************************************************


----------------
TOTAL SCF ENERGY
----------------

Total Energy       :        -1442.88530041 Eh          -39262.90511 eV

Components:
Nuclear Repulsion  :           97.63404662 Eh            2656.75748 eV
Electronic Energy  :        -1540.51934703 Eh          -41919.66259 eV
One Electron Energy:        -2182.46029022 Eh          -59387.76371 eV
Two Electron Energy:          641.94094319 Eh           17468.10113 eV

Virial components:
Potential Energy   :        -2882.99571949 Eh          -78450.30186 eV
Kinetic Energy     :         1440.11041908 Eh           39187.39675 eV
Virial Ratio       :            2.00192685


DFT components:
N(Alpha)           :       21.999996170479 electrons
N(Beta)            :       17.999996350731 electrons
N(Total)           :       39.999992521210 electrons
E(X)               :      -72.947611111399 Eh       
E(C)               :       -1.614969722305 Eh       
E(XC)              :      -74.562580833704 Eh       
DFET-embed. en.    :        0.000000000000 Eh       

---------------
SCF CONVERGENCE
---------------

  Last Energy change         ...    2.3209e-07  Tolerance :   1.0000e-06
  Last MAX-Density change    ...    7.7235e-04  Tolerance :   1.0000e-05
  Last RMS-Density change    ...    1.0496e-05  Tolerance :   1.0000e-06
  Last DIIS Error            ...    2.4627e-04  Tolerance :   1.0000e-06

             **** THE GBW FILE WAS UPDATED (24_CrS.gbw) ****
             **** DENSITY FILE WAS UPDATED (24_CrS.scfp) ****
             **** ENERGY FILE WAS UPDATED (24_CrS.en.tmp) ****
----------------------
UHF SPIN CONTAMINATION
----------------------

Warning: in a DFT calculation there is little theoretical justification to 
         calculate <S**2> as in Hartree-Fock theory. We will do it anyways
         but you should keep in mind that the values have only limited relevance

Expectation value of <S**2>     :     6.363027
Ideal value S*(S+1) for S=2.0   :     6.000000
Deviation                       :     0.363027

             **** THE GBW FILE WAS UPDATED (24_CrS.gbw) ****
             **** DENSITY FILE WAS UPDATED (24_CrS.scfp) ****
----------------
ORBITAL ENERGIES
----------------
                 SPIN UP ORBITALS
  NO   OCC          E(Eh)            E(eV) 
   0   1.0000    -215.100088     -5853.1710 
   1   1.0000     -88.618955     -2411.4444 
   2   1.0000     -24.642600      -670.5592 
   3   1.0000     -20.857521      -567.5620 
   4   1.0000     -20.857466      -567.5605 
   5   1.0000     -20.853621      -567.4559 
   6   1.0000      -7.822425      -212.8590 
   7   1.0000      -5.760978      -156.7642 
   8   1.0000      -5.760149      -156.7416 
   9   1.0000      -5.757952      -156.6818 
  10   1.0000      -2.906586       -79.0922 
  11   1.0000      -1.846172       -50.2369 
  12   1.0000      -1.845364       -50.2149 
  13   1.0000      -1.844716       -50.1973 
  14   1.0000      -0.588679       -16.0188 
  15   1.0000      -0.282340        -7.6829 
  16   1.0000      -0.259773        -7.0688 
  17   1.0000      -0.240623        -6.5477 
  18   1.0000      -0.227651        -6.1947 
  19   1.0000      -0.227276        -6.1845 
  20   1.0000      -0.206083        -5.6078 
  21   1.0000      -0.175744        -4.7822 
  22   0.0000      -0.153404        -4.1743 
  23   0.0000      -0.124692        -3.3930 
  24   0.0000      -0.035027        -0.9531 
  25   0.0000      -0.031540        -0.8583 
  26   0.0000       0.010893         0.2964 
  27   0.0000       0.016267         0.4426 
  28   0.0000       0.028063         0.7636 
  29   0.0000       0.030023         0.8170 
  30   0.0000       0.055773         1.5177 
  31   0.0000       0.056872         1.5476 
  32   0.0000       0.059118         1.6087 
  33   0.0000       0.060209         1.6384 
  34   0.0000       0.066509         1.8098 
  35   0.0000       0.070387         1.9153 
  36   0.0000       0.115463         3.1419 
  37   0.0000       0.120913         3.2902 
  38   0.0000       0.125831         3.4240 
  39   0.0000       0.127798         3.4776 
  40   0.0000       0.153268         4.1706 
  41   0.0000       0.162467         4.4210 
  42   0.0000       0.181949         4.9511 
  43   0.0000       0.183078         4.9818 
  44   0.0000       0.187885         5.1126 
  45   0.0000       0.205723         5.5980 
  46   0.0000       0.208500         5.6736 
  47   0.0000       0.226215         6.1556 
  48   0.0000       0.237550         6.4641 
  49   0.0000       0.240379         6.5410 
  50   0.0000       0.301107         8.1935 
  51   0.0000       0.316661         8.6168 
  52   0.0000       0.318310         8.6617 
  53   0.0000       0.371469        10.1082 
  54   0.0000       0.507789        13.8176 
  55   0.0000       0.513487        13.9727 
  56   0.0000       0.535593        14.5742 
  57   0.0000       0.543421        14.7872 
  58   0.0000       0.567924        15.4540 
  59   0.0000       0.569702        15.5024 
  60   0.0000       0.575677        15.6650 
  61   0.0000       0.580477        15.7956 
  62   0.0000       0.589083        16.0298 
  63   0.0000       0.609364        16.5816 
  64   0.0000       0.623929        16.9780 
  65   0.0000       0.639615        17.4048 
  66   0.0000       0.640373        17.4254 
  67   0.0000       0.649708        17.6794 
  68   0.0000       0.672508        18.2999 
  69   0.0000       0.676116        18.3981 
  70   0.0000       0.707107        19.2414 
  71   0.0000       0.743562        20.2333 
  72   0.0000       0.761344        20.7172 
  73   0.0000       0.767401        20.8820 
  74   0.0000       0.787976        21.4419 
  75   0.0000       0.788505        21.4563 
  76   0.0000       0.889456        24.2033 
  77   0.0000       0.900242        24.4968 
  78   0.0000       0.902114        24.5478 
  79   0.0000       0.982676        26.7400 
  80   0.0000       0.985030        26.8040 
  81   0.0000       1.150878        31.3170 
  82   0.0000       1.288266        35.0555 
  83   0.0000       1.296327        35.2749 
  84   0.0000       1.542748        41.9803 
  85   0.0000       1.742859        47.4256 
  86   0.0000       1.745980        47.5105 
  87   0.0000       1.746225        47.5172 
  88   0.0000       1.748274        47.5729 
  89   0.0000       1.759299        47.8730 
  90   0.0000       1.774277        48.2805 
  91   0.0000       1.775015        48.3006 
  92   0.0000       1.846610        50.2488 
  93   0.0000       1.847196        50.2648 
  94   0.0000       1.892200        51.4894 
  95   0.0000       1.984047        53.9887 
  96   0.0000       1.984810        54.0094 
  97   0.0000       2.077540        56.5327 
  98   0.0000       2.152001        58.5589 
  99   0.0000       2.158064        58.7239 
 100   0.0000       2.164817        58.9077 
 101   0.0000       2.165299        58.9208 
 102   0.0000       2.168031        58.9951 
 103   0.0000       2.168726        59.0140 
 104   0.0000       2.174379        59.1679 
 105   0.0000       2.177498        59.2527 
 106   0.0000       2.191876        59.6440 
 107   0.0000       2.194630        59.7189 
 108   0.0000       2.196174        59.7609 
 109   0.0000       2.224089        60.5205 
 110   0.0000       2.230957        60.7074 
 111   0.0000       2.333807        63.5061 
 112   0.0000       2.339604        63.6639 
 113   0.0000       2.407609        65.5144 
 114   0.0000       2.412471        65.6467 
 115   0.0000       2.498616        67.9908 
 116   0.0000       2.734458        74.4084 
 117   0.0000       2.877113        78.2902 
 118   0.0000       2.878277        78.3219 
 119   0.0000       3.280171        89.2580 
 120   0.0000       3.280987        89.2802 
 121   0.0000       3.337734        90.8243 
 122   0.0000       3.618091        98.4533 
 123   0.0000       3.630177        98.7821 
 124   0.0000       4.246500       115.5531 
 125   0.0000       5.297940       144.1643 
 126   0.0000       6.119935       166.5319 
 127   0.0000       6.121683       166.5795 
 128   0.0000       6.135857       166.9652 
 129   0.0000       6.147696       167.2873 
 130   0.0000       6.223084       169.3387 
 131   0.0000       6.230299       169.5350 
 132   0.0000       6.422971       174.7779 
 133   0.0000       6.677245       181.6971 
 134   0.0000       6.677893       181.7147 
 135   0.0000       6.679798       181.7666 
 136   0.0000       6.680010       181.7723 
 137   0.0000       6.743279       183.4939 
 138   0.0000       6.747144       183.5991 
 139   0.0000       6.900100       187.7613 
 140   0.0000       6.904666       187.8855 
 141   0.0000       7.021640       191.0685 
 142   0.0000       7.792676       212.0495 

                 SPIN DOWN ORBITALS
  NO   OCC          E(Eh)            E(eV) 
   0   1.0000    -215.102085     -5853.2253 
   1   1.0000     -88.623598     -2411.5707 
   2   1.0000     -24.510133      -666.9546 
   3   1.0000     -20.777335      -565.3800 
   4   1.0000     -20.774211      -565.2950 
   5   1.0000     -20.762884      -564.9868 
   6   1.0000      -7.831784      -213.1137 
   7   1.0000      -5.773082      -157.0935 
   8   1.0000      -5.767614      -156.9447 
   9   1.0000      -5.763089      -156.8216 
  10   1.0000      -2.746709       -74.7418 
  11   1.0000      -1.699787       -46.2535 
  12   1.0000      -1.684820       -45.8463 
  13   1.0000      -1.659930       -45.1690 
  14   1.0000      -0.608063       -16.5462 
  15   1.0000      -0.254814        -6.9339 
  16   1.0000      -0.242899        -6.6096 
  17   1.0000      -0.221521        -6.0279 
  18   0.0000      -0.075984        -2.0676 
  19   0.0000      -0.067706        -1.8424 
  20   0.0000      -0.049373        -1.3435 
  21   0.0000      -0.040857        -1.1118 
  22   0.0000      -0.040013        -1.0888 
  23   0.0000      -0.039647        -1.0788 
  24   0.0000       0.008165         0.2222 
  25   0.0000       0.010444         0.2842 
  26   0.0000       0.020198         0.5496 
  27   0.0000       0.023161         0.6302 
  28   0.0000       0.046255         1.2587 
  29   0.0000       0.048849         1.3292 
  30   0.0000       0.062643         1.7046 
  31   0.0000       0.063046         1.7156 
  32   0.0000       0.066690         1.8147 
  33   0.0000       0.069689         1.8963 
  34   0.0000       0.069805         1.8995 
  35   0.0000       0.083542         2.2733 
  36   0.0000       0.128362         3.4929 
  37   0.0000       0.128440         3.4950 
  38   0.0000       0.130456         3.5499 
  39   0.0000       0.162155         4.4124 
  40   0.0000       0.180512         4.9120 
  41   0.0000       0.183427         4.9913 
  42   0.0000       0.204366         5.5611 
  43   0.0000       0.204956         5.5771 
  44   0.0000       0.218462         5.9446 
  45   0.0000       0.230609         6.2752 
  46   0.0000       0.233575         6.3559 
  47   0.0000       0.237943         6.4748 
  48   0.0000       0.257914         7.0182 
  49   0.0000       0.257967         7.0197 
  50   0.0000       0.313971         8.5436 
  51   0.0000       0.320464         8.7203 
  52   0.0000       0.327702         8.9172 
  53   0.0000       0.401564        10.9271 
  54   0.0000       0.550414        14.9775 
  55   0.0000       0.562392        15.3035 
  56   0.0000       0.567140        15.4327 
  57   0.0000       0.568496        15.4696 
  58   0.0000       0.585359        15.9284 
  59   0.0000       0.586637        15.9632 
  60   0.0000       0.601110        16.3570 
  61   0.0000       0.608973        16.5710 
  62   0.0000       0.613735        16.7006 
  63   0.0000       0.642185        17.4747 
  64   0.0000       0.642554        17.4848 
  65   0.0000       0.678718        18.4689 
  66   0.0000       0.699005        19.0209 
  67   0.0000       0.707045        19.2397 
  68   0.0000       0.727086        19.7850 
  69   0.0000       0.728801        19.8317 
  70   0.0000       0.730611        19.8809 
  71   0.0000       0.776209        21.1217 
  72   0.0000       0.801780        21.8175 
  73   0.0000       0.802264        21.8307 
  74   0.0000       0.846068        23.0227 
  75   0.0000       0.848025        23.0759 
  76   0.0000       0.910655        24.7802 
  77   0.0000       0.926352        25.2073 
  78   0.0000       0.938302        25.5325 
  79   0.0000       1.023759        27.8579 
  80   0.0000       1.024043        27.8656 
  81   0.0000       1.197560        32.5873 
  82   0.0000       1.339697        36.4550 
  83   0.0000       1.352189        36.7949 
  84   0.0000       1.593801        43.3695 
  85   0.0000       1.811076        49.2819 
  86   0.0000       1.811978        49.3064 
  87   0.0000       1.854055        50.4514 
  88   0.0000       1.854176        50.4547 
  89   0.0000       1.867337        50.8128 
  90   0.0000       1.911053        52.0024 
  91   0.0000       1.911218        52.0069 
  92   0.0000       1.911225        52.0071 
  93   0.0000       1.911387        52.0115 
  94   0.0000       1.954863        53.1945 
  95   0.0000       1.972870        53.6845 
  96   0.0000       1.991004        54.1780 
  97   0.0000       2.121058        57.7169 
  98   0.0000       2.163835        58.8809 
  99   0.0000       2.174011        59.1578 
 100   0.0000       2.178884        59.2905 
 101   0.0000       2.190312        59.6014 
 102   0.0000       2.201001        59.8923 
 103   0.0000       2.204593        59.9900 
 104   0.0000       2.225028        60.5461 
 105   0.0000       2.281738        62.0892 
 106   0.0000       2.281844        62.0921 
 107   0.0000       2.284486        62.1640 
 108   0.0000       2.299708        62.5782 
 109   0.0000       2.302515        62.6546 
 110   0.0000       2.302998        62.6678 
 111   0.0000       2.427206        66.0476 
 112   0.0000       2.443081        66.4796 
 113   0.0000       2.490071        67.7583 
 114   0.0000       2.490086        67.7587 
 115   0.0000       2.582015        70.2602 
 116   0.0000       2.804075        76.3028 
 117   0.0000       2.931920        79.7816 
 118   0.0000       2.952121        80.3313 
 119   0.0000       3.376989        91.8925 
 120   0.0000       3.428811        93.3027 
 121   0.0000       3.429652        93.3256 
 122   0.0000       3.741229       101.8040 
 123   0.0000       3.764491       102.4370 
 124   0.0000       4.348120       118.3184 
 125   0.0000       5.319513       144.7513 
 126   0.0000       6.338183       172.4707 
 127   0.0000       6.338249       172.4725 
 128   0.0000       6.343967       172.6281 
 129   0.0000       6.345755       172.6768 
 130   0.0000       6.405243       174.2955 
 131   0.0000       6.429733       174.9619 
 132   0.0000       6.616254       180.0374 
 133   0.0000       6.874065       187.0528 
 134   0.0000       6.874220       187.0570 
 135   0.0000       6.880657       187.2322 
 136   0.0000       6.881129       187.2450 
 137   0.0000       6.931556       188.6172 
 138   0.0000       6.931632       188.6193 
 139   0.0000       7.068008       192.3303 
 140   0.0000       7.085444       192.8047 
 141   0.0000       7.187435       195.5800 
 142   0.0000       7.969612       216.8642 

                    ********************************
                    * MULLIKEN POPULATION ANALYSIS *
                    ********************************

--------------------------------------------
MULLIKEN ATOMIC CHARGES AND SPIN POPULATIONS
--------------------------------------------
   0 Cr:    0.254403    4.667716
   1 S :   -0.254403   -0.667716
Sum of atomic charges         :   -0.0000000
Sum of atomic spin populations:    4.0000000

-----------------------------------------------------
MULLIKEN REDUCED ORBITAL CHARGES AND SPIN POPULATIONS
-----------------------------------------------------
CHARGE
  0 Crs       :     6.752254  s :     6.752254
      pz      :     4.093815  p :    12.272348
      px      :     4.088866
      py      :     4.089667
      dz2     :     0.945815  d :     4.695927
      dxz     :     0.878572
      dyz     :     0.881722
      dx2y2   :     0.998207
      dxy     :     0.991611
      f0      :     0.004787  f :     0.022686
      f+1     :     0.008802
      f-1     :     0.008831
      f+2     :     0.000087
      f-2     :     0.000159
      f+3     :     0.000010
      f-3     :     0.000010
      g0      :     0.000689  g :     0.002381
      g+1     :     0.000840
      g-1     :     0.000841
      g+2     :     0.000001
      g-2     :     0.000006
      g+3     :     0.000001
      g-3     :     0.000001
      g+4     :     0.000002
      g-4     :     0.000001
  1 S s       :     5.869536  s :     5.869536
      pz      :     3.332040  p :    10.348334
      px      :     3.506025
      py      :     3.510269
      dz2     :     0.007741  d :     0.034525
      dxz     :     0.012061
      dyz     :     0.012062
      dx2y2   :     0.001156
      dxy     :     0.001505
      f0      :    -0.000562  f :     0.002008
      f+1     :     0.000613
      f-1     :     0.000609
      f+2     :     0.000547
      f-2     :     0.000604
      f+3     :     0.000098
      f-3     :     0.000099

SPIN
  0 Crs       :     0.524453  s :     0.524453
      pz      :    -0.003264  p :     0.093251
      px      :     0.047887
      py      :     0.048627
      dz2     :     0.679343  d :     4.054192
      dxz     :     0.691001
      dyz     :     0.694122
      dx2y2   :     0.998207
      dxy     :     0.991519
      f0      :    -0.001281  f :    -0.003426
      f+1     :    -0.001197
      f-1     :    -0.001173
      f+2     :     0.000087
      f-2     :     0.000137
      f+3     :     0.000001
      f-3     :     0.000001
      g0      :    -0.000223  g :    -0.000753
      g+1     :    -0.000269
      g-1     :    -0.000269
      g+2     :     0.000001
      g-2     :     0.000003
      g+3     :     0.000000
      g-3     :     0.000000
      g+4     :     0.000002
      g-4     :     0.000001
  1 S s       :    -0.001131  s :    -0.001131
      pz      :    -0.197642  p :    -0.680766
      px      :    -0.243738
      py      :    -0.239385
      dz2     :     0.006495  d :     0.013548
      dxz     :     0.002444
      dyz     :     0.002439
      dx2y2   :     0.001156
      dxy     :     0.001014
      f0      :     0.000055  f :     0.000632
      f+1     :    -0.000172
      f-1     :    -0.000181
      f+2     :     0.000547
      f-2     :     0.000521
      f+3     :    -0.000070
      f-3     :    -0.000069


                     *******************************
                     * LOEWDIN POPULATION ANALYSIS *
                     *******************************

-------------------------------------------
LOEWDIN ATOMIC CHARGES AND SPIN POPULATIONS
-------------------------------------------
   0 Cr:    0.031193    4.351746
   1 S :   -0.031193   -0.351746

----------------------------------------------------
LOEWDIN REDUCED ORBITAL CHARGES AND SPIN POPULATIONS
----------------------------------------------------
CHARGE
  0 Crs       :     6.452886  s :     6.452886
      pz      :     4.215646  p :    12.392134
      px      :     4.087604
      py      :     4.088884
      dz2     :     1.082289  d :     4.892316
      dxz     :     0.921929
      dyz     :     0.925175
      dx2y2   :     0.984863
      dxy     :     0.978061
      f0      :     0.078183  f :     0.214045
      f+1     :     0.067067
      f-1     :     0.067313
      f+2     :     0.000703
      f-2     :     0.000758
      f+3     :     0.000010
      f-3     :     0.000010
      g0      :     0.006603  g :     0.017427
      g+1     :     0.005367
      g-1     :     0.005384
      g+2     :     0.000027
      g-2     :     0.000040
      g+3     :     0.000001
      g-3     :     0.000001
      g+4     :     0.000002
      g-4     :     0.000001
  1 S s       :     5.446420  s :     5.446420
      pz      :     3.490403  p :    10.147373
      px      :     3.326824
      py      :     3.330147
      dz2     :     0.145179  d :     0.250719
      dxz     :     0.047033
      dyz     :     0.047099
      dx2y2   :     0.005467
      dxy     :     0.005942
      f0      :     0.088505  f :     0.186680
      f+1     :     0.039957
      f-1     :     0.039999
      f+2     :     0.008938
      f-2     :     0.009084
      f+3     :     0.000098
      f-3     :     0.000099

SPIN
  0 Crs       :     0.436029  s :     0.436029
      pz      :    -0.009769  p :     0.078850
      px      :     0.043704
      py      :     0.044915
      dz2     :     0.647515  d :     3.865068
      dxz     :     0.625747
      dyz     :     0.628977
      dx2y2   :     0.984863
      dxy     :     0.977965
      f0      :    -0.001416  f :    -0.025283
      f+1     :    -0.012778
      f-1     :    -0.012521
      f+2     :     0.000703
      f-2     :     0.000728
      f+3     :     0.000001
      f-3     :     0.000001
      g0      :    -0.000506  g :    -0.002919
      g+1     :    -0.001248
      g-1     :    -0.001230
      g+2     :     0.000027
      g-2     :     0.000035
      g+3     :    -0.000000
      g-3     :    -0.000000
      g+4     :     0.000002
      g-4     :     0.000001
  1 S s       :     0.014768  s :     0.014768
      pz      :    -0.097558  p :    -0.479736
      px      :    -0.192794
      py      :    -0.189385
      dz2     :     0.015594  d :     0.068267
      dxz     :     0.020841
      dyz     :     0.020901
      dx2y2   :     0.005467
      dxy     :     0.005464
      f0      :     0.002146  f :     0.044956
      f+1     :     0.012485
      f-1     :     0.012522
      f+2     :     0.008938
      f-2     :     0.009002
      f+3     :    -0.000069
      f-3     :    -0.000069


                      *****************************
                      * MAYER POPULATION ANALYSIS *
                      *****************************

  NA   - Mulliken gross atomic population
  ZA   - Total nuclear charge
  QA   - Mulliken gross atomic charge
  VA   - Mayer's total valence
  BVA  - Mayer's bonded valence
  FA   - Mayer's free valence

  ATOM       NA         ZA         QA         VA         BVA        FA
  0 Cr    23.7456    24.0000     0.2544     6.1945     2.1479     4.0467
  1 S     16.2544    16.0000    -0.2544     2.4421     2.1479     0.2942

  Mayer bond orders larger than 0.100000
B(  0-Cr,  1-S ) :   2.1479 

-------
TIMINGS
-------

Total SCF time: 0 days 0 hours 0 min 8 sec 

Total time                  ....       8.302 sec
Sum of individual times     ....       8.115 sec  ( 97.7%)

Fock matrix formation       ....       7.507 sec  ( 90.4%)
  Split-RI-J                ....       5.157 sec  ( 68.7% of F)
  XC integration            ....       2.164 sec  ( 28.8% of F)
    Basis function eval.    ....       0.199 sec  (  9.2% of XC)
    Density eval.           ....       0.218 sec  ( 10.1% of XC)
    XC-Functional eval.     ....       0.041 sec  (  1.9% of XC)
    XC-Potential eval.      ....       0.677 sec  ( 31.3% of XC)
Diagonalization             ....       0.210 sec  (  2.5%)
Density matrix formation    ....       0.027 sec  (  0.3%)
Population analysis         ....       0.007 sec  (  0.1%)
Initial guess               ....       0.104 sec  (  1.2%)
Orbital Transformation      ....       0.000 sec  (  0.0%)
Orbital Orthonormalization  ....       0.000 sec  (  0.0%)
DIIS solution               ....       0.085 sec  (  1.0%)
Grid generation             ....       0.175 sec  (  2.1%)


-------------------------------------------------------------------------------
                          DFT DISPERSION CORRECTION                            
                                                                               
                              DFTD3 V3.1  Rev 1                                
                          USING Becke-Johnson damping                          
-------------------------------------------------------------------------------
The SCAN functional is recognized
Active option DFTDOPT                   ...         4   

molecular C6(AA) [au] = 900.064108 


            DFT-D V3
 parameters
 s6 scaling factor         :     1.0000 
 a1 scaling factor         :     0.5380 
 s8 scaling factor         :     0.0000 
 a2 scaling factor         :     5.4200 
 ad hoc parameters k1-k3   :    16.0000     1.3333    -4.0000 

 Edisp/kcal,au: -0.142325694873  -0.000226810408 
 E6   /kcal   :  -0.142325695 
 E8   /kcal   :  -0.000000000 
 % E8         :   0.000000000 

-------------------------   ----------------
Dispersion correction           -0.000226810
-------------------------   ----------------


-------------------------   --------------------
FINAL SINGLE POINT ENERGY     -1442.885527220648
-------------------------   --------------------


                            ***************************************
                            *     ORCA property calculations      *
                            ***************************************

                                    ---------------------
                                    Active property flags
                                    ---------------------
   (+) Dipole Moment


------------------------------------------------------------------------------
                       ORCA ELECTRIC PROPERTIES CALCULATION
------------------------------------------------------------------------------

Dipole Moment Calculation                       ... on
Quadrupole Moment Calculation                   ... off
Polarizability Calculation                      ... off
GBWName                                         ... 24_CrS.gbw
Electron density file                           ... 24_CrS.scfp
The origin for moment calculation is the CENTER OF MASS  = ( 0.000000,  0.000000  1.423243)

-------------
DIPOLE MOMENT
-------------
                                X             Y             Z
Electronic contribution:      0.00000      -0.00000      -4.92290
Nuclear contribution   :      0.00000       0.00000       2.92710
                        -----------------------------------------
Total Dipole Moment    :      0.00000      -0.00000      -1.99580
                        -----------------------------------------
Magnitude (a.u.)       :      1.99580
Magnitude (Debye)      :      5.07292



--------------------
Rotational spectrum 
--------------------
 
Rotational constants in cm-1:     0.000000     0.196226     0.196226 
Rotational constants in MHz :     0.000000  5882.717555  5882.717555 

 Dipole components along the rotational axes: 
x,y,z [a.u.] :    -1.995799    -0.000001     0.000001 
x,y,z [Debye]:    -5.072917    -0.000002     0.000001 

 

Timings for individual modules:

Sum of individual times         ...       11.762 sec (=   0.196 min)
GTO integral calculation        ...        3.128 sec (=   0.052 min)  26.6 %
SCF iterations                  ...        8.635 sec (=   0.144 min)  73.4 %
                             ****ORCA TERMINATED NORMALLY****
TOTAL RUN TIME: 0 days 0 hours 0 minutes 12 seconds 335 msec
