
                                 *****************
                                 * O   R   C   A *
                                 *****************

           --- An Ab Initio, DFT and Semiempirical electronic structure package ---

                  #######################################################
                  #                        -***-                        #
                  #          Department of theory and spectroscopy      #
                  #               Directorship: Frank Neese             #
                  #        Max Planck Institute fuer Kohlenforschung    #
                  #                Kaiser Wilhelm Platz 1               #
                  #                 D-45470 Muelheim/Ruhr               #
                  #                      Germany                        #
                  #                                                     #
                  #                  All rights reserved                #
                  #                        -***-                        #
                  #######################################################


                         Program Version 4.2.0 -  RELEASE  -


 With contributions from (in alphabetic order):
   Daniel Aravena         : Magnetic Suceptibility
   Michael Atanasov       : Ab Initio Ligand Field Theory (pilot matlab implementation)
   Alexander A. Auer      : GIAO ZORA, VPT2
   Ute Becker             : Parallelization
   Giovanni Bistoni       : ED, misc. LED, open-shell LED, HFLED
   Martin Brehm           : Molecular dynamics
   Dmytro Bykov           : SCF Hessian
   Vijay G. Chilkuri      : MRCI spin determinant printing, contributions to CSF-ICE
   Dipayan Datta          : RHF DLPNO-CCSD density
   Achintya Kumar Dutta   : EOM-CC, STEOM-CC
   Dmitry Ganyushin       : Spin-Orbit,Spin-Spin,Magnetic field MRCI
   Miquel Garcia          : C-PCM Hessian, Gaussian charge scheme
   Yang Guo               : DLPNO-NEVPT2, CIM, IAO-localization
   Andreas Hansen         : Spin unrestricted coupled pair/coupled cluster methods
   Benjamin Helmich-Paris : CASSCF linear response (MC-RPA)
   Lee Huntington         : MR-EOM, pCC
   Robert Izsak           : Overlap fitted RIJCOSX, COSX-SCS-MP3, EOM
   Christian Kollmar      : KDIIS, OOCD, Brueckner-CCSD(T), CCSD density
   Simone Kossmann        : Meta GGA functionals, TD-DFT gradient, OOMP2, MP2 Hessian
   Martin Krupicka        : AUTO-CI
   Lucas Lang             : DCDCAS
   Dagmar Lenk            : GEPOL surface, SMD
   Dimitrios Liakos       : Extrapolation schemes; Compound Job, initial MDCI parallelization
   Dimitrios Manganas     : Further ROCIS development; embedding schemes
   Dimitrios Pantazis     : SARC Basis sets
   Taras Petrenko         : DFT Hessian,TD-DFT gradient, ASA, ECA, R-Raman, ABS, FL, XAS/XES, NRVS
   Peter Pinski           : DLPNO-MP2, DLPNO-MP2 Gradient
   Christoph Reimann      : Effective Core Potentials
   Marius Retegan         : Local ZFS, SOC
   Christoph Riplinger    : Optimizer, TS searches, QM/MM, DLPNO-CCSD(T), (RO)-DLPNO pert. Triples
   Tobias Risthaus        : Range-separated hybrids, TD-DFT gradient, RPA, STAB
   Michael Roemelt        : Original ROCIS implementation
   Masaaki Saitow         : Open-shell DLPNO-CCSD energy and density
   Barbara Sandhoefer     : DKH picture change effects
   Avijit Sen             : IP-ROCIS
   Kantharuban Sivalingam : CASSCF convergence, NEVPT2, FIC-MRCI
   Bernardo de Souza      : ESD, SOC TD-DFT
   Georgi Stoychev        : AutoAux, RI-MP2 NMR
   Willem Van den Heuvel  : Paramagnetic NMR
   Boris Wezisla          : Elementary symmetry handling
   Frank Wennmohs         : Technical directorship


 We gratefully acknowledge several colleagues who have allowed us to
 interface, adapt or use parts of their codes:
   Stefan Grimme, W. Hujo, H. Kruse,             : VdW corrections, initial TS optimization,
                  C. Bannwarth                     DFT functionals, gCP, sTDA/sTD-DF
   Ed Valeev, F. Pavosevic, A. Kumar             : LibInt (2-el integral package), F12 methods
   Garnet Chan, S. Sharma, J. Yang, R. Olivares  : DMRG
   Ulf Ekstrom                                   : XCFun DFT Library
   Mihaly Kallay                                 : mrcc  (arbitrary order and MRCC methods)
   Andreas Klamt, Michael Diedenhofen            : otool_cosmo (COSMO solvation model)
   Jiri Pittner, Ondrej Demel                    : Mk-CCSD
   Frank Weinhold                                : gennbo (NPA and NBO analysis)
   Christopher J. Cramer and Donald G. Truhlar   : smd solvation model
   Lars Goerigk                                  : TD-DFT with DH, B97 family of functionals
   V. Asgeirsson, H. Jonsson                     : NEB implementation
   FAccTs GmbH                                   : IRC, NEB, NEB-TS, Multilevel, MM, QM/MM, CI optimization
   S Lehtola, MJT Oliveira, MAL Marques          : LibXC Library


 Your calculation uses the libint2 library for the computation of 2-el integrals
 For citations please refer to: http://libint.valeyev.net

 Your ORCA version has been built with support for libXC version: 4.2.3
 For citations please refer to: https://tddft.org/programs/libxc/

 This ORCA versions uses:
   CBLAS   interface :  Fast vector & matrix operations
   LAPACKE interface :  Fast linear algebra routines
   SCALAPACK package :  Parallel linear algebra routines


Your calculation utilizes the atom-pairwise dispersion correction
with the Becke-Johnson damping scheme (D3BJ)
Cite in your paper:
S.Grimme, S.Ehrlich, L.Goerigk, J Comput Chem, (2011), 32, 1456–1465 
S.Grimme, J.Antony, S.Ehrlich and H.Krieg, J.Chem.Phys., 132, (2010), 154104 
   

----- Orbital basis set information -----
Your calculation utilizes the basis: aug-cc-pVTZ 
    H, B-Ne : Obtained from the ccRepo (grant-hill.group.shef.ac.uk/ccrepo) Feb. 2017
              R. A. Kendall, T. H. Dunning, Jr., R. J. Harrison, J. Chem. Phys. 96, 6796 (1992)
         He : Obtained from the ccRepo (grant-hill.group.shef.ac.uk/ccrepo) Feb. 2017
              D. E. Woon, T. H. Dunning, Jr., J. Chem. Phys. 100, 2975 (1994)
  Li-Be, Na : Obtained from the ccRepo (grant-hill.group.shef.ac.uk/ccrepo) Feb. 2017
              B. P. Prascher, D. E. Woon, K. A. Peterson, T. H. Dunning, Jr., A. K. Wilson, Theor. Chem. Acc. 128, 69 (2011)
         Mg : Obtained from the Peterson Research Group Website (tyr0.chem.wsu.edu/~kipeters) Feb. 2017
              B. P. Prascher, D. E. Woon, K. A. Peterson, T. H. Dunning, Jr., A. K. Wilson, Theor. Chem. Acc. 128, 69 (2011)
      Al-Ar : Obtained from the ccRepo (grant-hill.group.shef.ac.uk/ccrepo) Feb. 2017
              D. E. Woon, T. H. Dunning, Jr., J. Chem. Phys. 98, 1358 (1993)
      Sc-Zn : Obtained from the ccRepo (grant-hill.group.shef.ac.uk/ccrepo) Feb. 2017
              N. B. Balabanov, K. A. Peterson, J. Chem. Phys. 123, 064107 (2005)
              N. B. Balabanov, K. A. Peterson, J. Chem. Phys. 125, 074110 (2006)
      Ga-Kr : Obtained from the ccRepo (grant-hill.group.shef.ac.uk/ccrepo) Feb. 2017
              A. K. Wilson, D. E. Woon, K. A. Peterson, T. H. Dunning, Jr., J. Chem. Phys. 110, 7667 (1999)
     Ag, Au : Obtained from the Peterson Research Group Website (tyr0.chem.wsu.edu/~kipeters) Feb. 2017
              K. A. Peterson, C. Puzzarini, Theor. Chem. Acc. 114, 283 (2005)

----- AuxJ basis set information -----
Your calculation utilizes the auxiliary basis: def2/J
   F. Weigend, Phys. Chem. Chem. Phys. 8, 1057 (2006).

================================================================================
                                        WARNINGS
                       Please study these warnings very carefully!
================================================================================


WARNING: your system is open-shell and RHF/RKS was chosen
  ===> : WILL SWITCH to UHF/UKS


WARNING: The SCAN functional is very grid-sensitive!
         Use at least GRID5 and a higher intacc

INFO   : the flag for use of LIBINT has been found!

================================================================================
                                       INPUT FILE
================================================================================
NAME = 25_MnH.in
|  1> #
|  2> # 25_MnH scanfunc/aug-cc-pvtz
|  3> #
|  4> ! scanfunc d3bj aug-cc-pvtz def2/j grid4 nofinalgrid
|  5> 
|  6> *xyz 0 7
|  7>   Mn  0.00000000000000      0.00000000000000      0.13923463274405
|  8>   H   0.00000000000000      0.00000000000000      1.86076536725595
|  9> *
| 10> 
| 11> %pal
| 12> nprocs 24
| 13> end
| 14> 
| 15> 
| 16>                          ****END OF INPUT****
================================================================================

                       ****************************
                       * Single Point Calculation *
                       ****************************

---------------------------------
CARTESIAN COORDINATES (ANGSTROEM)
---------------------------------
  Mn     0.000000    0.000000    0.139235
  H      0.000000    0.000000    1.860765

----------------------------
CARTESIAN COORDINATES (A.U.)
----------------------------
  NO LB      ZA    FRAG     MASS         X           Y           Z
   0 Mn   25.0000    0    54.940    0.000000    0.000000    0.263115
   1 H     1.0000    0     1.008    0.000000    0.000000    3.516337

--------------------------------
INTERNAL COORDINATES (ANGSTROEM)
--------------------------------
 Mn     0   0   0     0.000000000000     0.00000000     0.00000000
 H      1   0   0     1.721530734512     0.00000000     0.00000000

---------------------------
INTERNAL COORDINATES (A.U.)
---------------------------
 Mn     0   0   0     0.000000000000     0.00000000     0.00000000
 H      1   0   0     3.253221619356     0.00000000     0.00000000

---------------------
BASIS SET INFORMATION
---------------------
There are 2 groups of distinct atoms

 Group   1 Type Mn  : 116s77p23d3f2g contracted to 8s7p5d3f2g pattern {19191919191911/151515151511/77711/111/11}
 Group   2 Type H   : 6s3p2d contracted to 4s3p2d pattern {3111/111/11}

Atom   0Mn   basis set group =>   1
Atom   1H    basis set group =>   2
---------------------------------
AUXILIARY/J BASIS SET INFORMATION
---------------------------------
There are 2 groups of distinct atoms

 Group   1 Type Mn  : 19s5p5d3f3g contracted to 8s5p5d2f3g pattern {121111111/11111/11111/21/111}
 Group   2 Type H   : 5s2p1d contracted to 3s1p1d pattern {311/2/1}

Atom   0Mn   basis set group =>   1
Atom   1H    basis set group =>   2


           ************************************************************
           *        Program running with 24 parallel MPI-processes    *
           *              working on a common directory               *
           ************************************************************
------------------------------------------------------------------------------
                           ORCA GTO INTEGRAL CALCULATION
                           -- RI-GTO INTEGRALS CHOSEN --
------------------------------------------------------------------------------

                         BASIS SET STATISTICS AND STARTUP INFO

Gaussian basis set:
 # of primitive gaussian shells          ...  232
 # of primitive gaussian functions       ...  526
 # of contracted shells                  ...   34
 # of contracted basis functions         ...  116
 Highest angular momentum                ...    4
 Maximum contraction depth               ...   19
Auxiliary gaussian basis set:
 # of primitive gaussian shells          ...   43
 # of primitive gaussian functions       ...  123
 # of contracted shells                  ...   28
 # of contracted aux-basis functions     ...  100
 Highest angular momentum                ...    4
 Maximum contraction depth               ...   12
Ratio of auxiliary to basis functions    ...  0.86
Integral package used                  ... LIBINT
 One Electron integrals                  ... done
 Ordering auxiliary basis shells         ... done
 Integral threshhold             Thresh  ...  1.000e-10
 Primitive cut-off               TCut    ...  1.000e-11
 Pre-screening matrix                    ... done
 Shell pair data                         ... 
 Ordering of the shell pairs             ... done (   0.000 sec) 595 of 595 pairs
 Determination of significant pairs      ... done (   0.000 sec)
 Creation of shell pair data             ... done (   0.001 sec)
 Storage of shell pair data              ... done (   0.039 sec)
 Shell pair data done in (   0.040 sec)
 Computing two index integrals           ... done
 Cholesky decomposition of the V-matrix  ... done


Timings:
 Total evaluation time                   ...   2.174 sec (  0.036 min)
 One electron matrix time                ...   0.044 sec (  0.001 min) =  2.0%
 Schwartz matrix evaluation time         ...   2.048 sec (  0.034 min) = 94.2%
 Two index repulsion integral time       ...   0.001 sec (  0.000 min) =  0.0%
 Cholesky decomposition of V             ...   0.014 sec (  0.000 min) =  0.6%
 Three index repulsion integral time     ...   0.000 sec (  0.000 min) =  0.0%



           ************************************************************
           *        Program running with 24 parallel MPI-processes    *
           *              working on a common directory               *
           ************************************************************
-------------------------------------------------------------------------------
                                 ORCA SCF
-------------------------------------------------------------------------------

------------
SCF SETTINGS
------------
Hamiltonian:
 Density Functional     Method          .... DFT(GTOs)
 Exchange Functional    Exchange        .... SCAN
 Correlation Functional Correlation     .... SCAN
 Gradients option       PostSCFGGA      .... off
   Density functional embedding theory  .... OFF
   NL short-range parameter             ....  6.400000
 RI-approximation to the Coulomb term is turned on
   Number of auxiliary basis functions  .... 100


General Settings:
 Integral files         IntName         .... 25_MnH
 Hartree-Fock type      HFTyp           .... UHF
 Total Charge           Charge          ....    0
 Multiplicity           Mult            ....    7
 Number of Electrons    NEL             ....   26
 Basis Dimension        Dim             ....  116
 Nuclear Repulsion      ENuc            ....      7.6846901088 Eh

Convergence Acceleration:
 DIIS                   CNVDIIS         .... on
   Start iteration      DIISMaxIt       ....    12
   Startup error        DIISStart       ....  0.200000
   # of expansion vecs  DIISMaxEq       ....     5
   Bias factor          DIISBfac        ....   1.050
   Max. coefficient     DIISMaxC        ....  10.000
 Newton-Raphson         CNVNR           .... off
 SOSCF                  CNVSOSCF        .... off
 Level Shifting         CNVShift        .... on
   Level shift para.    LevelShift      ....    0.2500
   Turn off err/grad.   ShiftErr        ....    0.0010
 Zerner damping         CNVZerner       .... off
 Static damping         CNVDamp         .... on
   Fraction old density DampFac         ....    0.7000
   Max. Damping (<1)    DampMax         ....    0.9800
   Min. Damping (>=0)   DampMin         ....    0.0000
   Turn off err/grad.   DampErr         ....    0.1000
 Fernandez-Rico         CNVRico         .... off

SCF Procedure:
 Maximum # iterations   MaxIter         ....   125
 SCF integral mode      SCFMode         .... Direct
   Integral package                     .... LIBINT
 Reset frequency        DirectResetFreq ....    20
 Integral Threshold     Thresh          ....  1.000e-10 Eh
 Primitive CutOff       TCut            ....  1.000e-11 Eh

Convergence Tolerance:
 Convergence Check Mode ConvCheckMode   .... Total+1el-Energy
 Convergence forced     ConvForced      .... 0
 Energy Change          TolE            ....  1.000e-06 Eh
 1-El. energy change                    ....  1.000e-03 Eh
 DIIS Error             TolErr          ....  1.000e-06


Diagonalization of the overlap matrix:
Smallest eigenvalue                        ... 5.289e-05
Time for diagonalization                   ...    0.004 sec
Threshold for overlap eigenvalues          ... 1.000e-08
Number of eigenvalues below threshold      ... 0
Time for construction of square roots      ...    0.001 sec
Total time needed                          ...    0.006 sec

-------------------
DFT GRID GENERATION
-------------------

General Integration Accuracy     IntAcc      ...  4.670
Radial Grid Type                 RadialGrid  ... Gauss-Chebyshev
Angular Grid (max. acc.)         AngularGrid ... Lebedev-302
Angular grid pruning method      GridPruning ... 3 (G Style)
Weight generation scheme         WeightScheme... Becke
Basis function cutoff            BFCut       ...    1.0000e-10
Integration weight cutoff        WCut        ...    1.0000e-14
Grids for H and He will be reduced by one unit

# of grid points (after initial pruning)     ...  13058 (   0.0 sec)
# of grid points (after weights+screening)   ...  13023 (   0.0 sec)
nearest neighbour list constructed           ...    0.0 sec
Grid point re-assignment to atoms done       ...    0.0 sec
Grid point division into batches done        ...    0.1 sec
Reduced shell lists constructed in    0.1 sec

Total number of grid points                  ...    13023
Total number of batches                      ...      205
Average number of points per batch           ...       63
Average number of grid points per atom       ...     6512
Average number of shells per batch           ...    15.70 (46.18%)
Average number of basis functions per batch  ...    35.10 (30.26%)
Average number of large shells per batch     ...     9.80 (62.42%)
Average number of large basis fcns per batch ...    22.60 (64.39%)
Maximum spatial batch extension              ...  31.41, 28.57, 18.88 au
Average spatial batch extension              ...   1.01,  0.93,  0.72 au

Time for grid setup =    0.124 sec

------------------------------
INITIAL GUESS: MODEL POTENTIAL
------------------------------
Loading Hartree-Fock densities                     ... done
Calculating cut-offs                               ... done
Setting up the integral package                    ... done
Initializing the effective Hamiltonian             ... done
Starting the Coulomb interaction                   ... done (   0.0 sec)
Reading the grid                                   ... done
Mapping shells                                     ... done
Starting the XC term evaluation                    ... done (   0.0 sec)
  promolecular density results
     # of electrons  =     25.999501967
     EX              =    -57.547230094
     EC              =     -0.454487081
     EX+EC           =    -58.001717175
Transforming the Hamiltonian                       ... done (   0.0 sec)
Diagonalizing the Hamiltonian                      ... done (   0.0 sec)
Back transforming the eigenvectors                 ... done (   0.0 sec)
Now organizing SCF variables                       ... done
                      ------------------
                      INITIAL GUESS DONE (   0.2 sec)
                      ------------------
--------------
SCF ITERATIONS
--------------
ITER       Energy         Delta-E        Max-DP      RMS-DP      [F,P]     Damp
               ***  Starting incremental Fock matrix formation  ***
  0  -1151.5510973154   0.000000000000 0.34075174  0.00797046  0.3718897 0.7000
  1  -1151.6210029803  -0.069905664947 0.18764239  0.00442650  0.1053514 0.7000
                               ***Turning on DIIS***
  2  -1151.6400597439  -0.019056763551 0.39534217  0.00813867  0.0459203 0.0000
  3  -1151.6966304507  -0.056570706827 0.04717832  0.00087938  0.0370271 0.0000
  4  -1151.6985063930  -0.001875942316 0.05522226  0.00114618  0.0416660 0.0000
  5  -1151.7010174349  -0.002511041920 0.04417065  0.00043208  0.0114465 0.0000
  6  -1151.7014414358  -0.000424000864 0.01572425  0.00017004  0.0051796 0.0000
  7  -1151.7015923489  -0.000150913070 0.00587616  0.00007521  0.0029837 0.0000
  8  -1151.7016449457  -0.000052596868 0.00344289  0.00004222  0.0018253 0.0000
  9  -1151.7016643994  -0.000019453692 0.00216570  0.00002116  0.0012795 0.0000
 10  -1151.7016726296  -0.000008230131 0.00350881  0.00003227  0.0007847 0.0000
 11  -1151.7016773156  -0.000004686011 0.00034921  0.00000838  0.0003502 0.0000
 12  -1151.7016777319  -0.000000416359 0.00021512  0.00000568  0.0000798 0.0000
                 **** Energy Check signals convergence ****

               *****************************************************
               *                     SUCCESS                       *
               *           SCF CONVERGED AFTER  13 CYCLES          *
               *****************************************************


----------------
TOTAL SCF ENERGY
----------------

Total Energy       :        -1151.70167770 Eh          -31339.39591 eV

Components:
Nuclear Repulsion  :            7.68469011 Eh             209.11105 eV
Electronic Energy  :        -1159.38636781 Eh          -31548.50696 eV
One Electron Energy:        -1600.86340021 Eh          -43561.70775 eV
Two Electron Energy:          441.47703240 Eh           12013.20079 eV

Virial components:
Potential Energy   :        -2301.62818587 Eh          -62630.48701 eV
Kinetic Energy     :         1149.92650817 Eh           31291.09110 eV
Virial Ratio       :            2.00154372


DFT components:
N(Alpha)           :       16.000002251916 electrons
N(Beta)            :       10.000002056862 electrons
N(Total)           :       26.000004308778 electrons
E(X)               :      -51.523159026234 Eh       
E(C)               :       -1.062931788348 Eh       
E(XC)              :      -52.586090814582 Eh       
DFET-embed. en.    :        0.000000000000 Eh       

---------------
SCF CONVERGENCE
---------------

  Last Energy change         ...    3.0094e-08  Tolerance :   1.0000e-06
  Last MAX-Density change    ...    6.2352e-05  Tolerance :   1.0000e-05
  Last RMS-Density change    ...    1.5898e-06  Tolerance :   1.0000e-06
  Last DIIS Error            ...    2.5148e-05  Tolerance :   1.0000e-06

             **** THE GBW FILE WAS UPDATED (25_MnH.gbw) ****
             **** DENSITY FILE WAS UPDATED (25_MnH.scfp) ****
             **** ENERGY FILE WAS UPDATED (25_MnH.en.tmp) ****
----------------------
UHF SPIN CONTAMINATION
----------------------

Warning: in a DFT calculation there is little theoretical justification to 
         calculate <S**2> as in Hartree-Fock theory. We will do it anyways
         but you should keep in mind that the values have only limited relevance

Expectation value of <S**2>     :    12.005830
Ideal value S*(S+1) for S=3.0   :    12.000000
Deviation                       :     0.005830

             **** THE GBW FILE WAS UPDATED (25_MnH.gbw) ****
             **** DENSITY FILE WAS UPDATED (25_MnH.scfp) ****
----------------
ORBITAL ENERGIES
----------------
                 SPIN UP ORBITALS
  NO   OCC          E(Eh)            E(eV) 
   0   1.0000    -234.933795     -6392.8736 
   1   1.0000     -27.332411      -743.7527 
   2   1.0000     -23.317554      -634.5029 
   3   1.0000     -23.317554      -634.5029 
   4   1.0000     -23.314295      -634.4142 
   5   1.0000      -3.272552       -89.0507 
   6   1.0000      -2.126713       -57.8708 
   7   1.0000      -2.126713       -57.8708 
   8   1.0000      -2.111966       -57.4695 
   9   1.0000      -0.337426        -9.1818 
  10   1.0000      -0.330472        -8.9926 
  11   1.0000      -0.330459        -8.9922 
  12   1.0000      -0.321472        -8.7477 
  13   1.0000      -0.321472        -8.7477 
  14   1.0000      -0.265223        -7.2171 
  15   1.0000      -0.153975        -4.1899 
  16   0.0000      -0.066514        -1.8099 
  17   0.0000      -0.066514        -1.8099 
  18   0.0000       0.015445         0.4203 
  19   0.0000       0.029351         0.7987 
  20   0.0000       0.036945         1.0053 
  21   0.0000       0.036946         1.0054 
  22   0.0000       0.051235         1.3942 
  23   0.0000       0.066114         1.7991 
  24   0.0000       0.066333         1.8050 
  25   0.0000       0.067949         1.8490 
  26   0.0000       0.067951         1.8490 
  27   0.0000       0.087652         2.3851 
  28   0.0000       0.121679         3.3111 
  29   0.0000       0.152623         4.1531 
  30   0.0000       0.161929         4.4063 
  31   0.0000       0.161930         4.4063 
  32   0.0000       0.203253         5.5308 
  33   0.0000       0.213280         5.8036 
  34   0.0000       0.213282         5.8037 
  35   0.0000       0.220428         5.9982 
  36   0.0000       0.220967         6.0128 
  37   0.0000       0.281736         7.6664 
  38   0.0000       0.281736         7.6664 
  39   0.0000       0.288262         7.8440 
  40   0.0000       0.421225        11.4621 
  41   0.0000       0.461244        12.5511 
  42   0.0000       0.609974        16.5982 
  43   0.0000       0.610490        16.6123 
  44   0.0000       0.632352        17.2072 
  45   0.0000       0.641223        17.4486 
  46   0.0000       0.641223        17.4486 
  47   0.0000       0.654897        17.8207 
  48   0.0000       0.654897        17.8207 
  49   0.0000       0.733062        19.9476 
  50   0.0000       0.733063        19.9476 
  51   0.0000       0.774788        21.0830 
  52   0.0000       0.836370        22.7588 
  53   0.0000       0.836371        22.7588 
  54   0.0000       0.838265        22.8103 
  55   0.0000       0.865547        23.5527 
  56   0.0000       0.865962        23.5640 
  57   0.0000       0.936744        25.4901 
  58   0.0000       0.937118        25.5003 
  59   0.0000       0.988002        26.8849 
  60   0.0000       0.988002        26.8849 
  61   0.0000       1.075477        29.2652 
  62   0.0000       1.250670        34.0324 
  63   0.0000       1.425912        38.8010 
  64   0.0000       1.425914        38.8011 
  65   0.0000       1.869141        50.8619 
  66   0.0000       2.105937        57.3055 
  67   0.0000       2.105937        57.3055 
  68   0.0000       2.135507        58.1101 
  69   0.0000       2.135687        58.1150 
  70   0.0000       2.163115        58.8613 
  71   0.0000       2.163115        58.8613 
  72   0.0000       2.311326        62.8944 
  73   0.0000       2.544864        69.2493 
  74   0.0000       2.615970        71.1842 
  75   0.0000       2.615970        71.1842 
  76   0.0000       2.627265        71.4915 
  77   0.0000       2.627363        71.4942 
  78   0.0000       2.635800        71.7238 
  79   0.0000       2.635800        71.7238 
  80   0.0000       2.683629        73.0253 
  81   0.0000       2.705590        73.6229 
  82   0.0000       2.705974        73.6333 
  83   0.0000       2.844296        77.3972 
  84   0.0000       2.844296        77.3972 
  85   0.0000       2.877053        78.2886 
  86   0.0000       3.205233        87.2188 
  87   0.0000       3.760883       102.3388 
  88   0.0000       3.761353       102.3516 
  89   0.0000       3.799006       103.3762 
  90   0.0000       3.801518       103.4446 
  91   0.0000       3.891366       105.8894 
  92   0.0000       3.891366       105.8894 
  93   0.0000       4.073717       110.8515 
  94   0.0000       4.073717       110.8515 
  95   0.0000       4.271422       116.2313 
  96   0.0000       4.271422       116.2313 
  97   0.0000       4.356481       118.5459 
  98   0.0000       4.586668       124.8096 
  99   0.0000       5.251175       142.8917 
 100   0.0000       7.337897       199.6743 
 101   0.0000       7.337897       199.6743 
 102   0.0000       7.354635       200.1298 
 103   0.0000       7.354742       200.1327 
 104   0.0000       7.407503       201.5684 
 105   0.0000       7.407503       201.5684 
 106   0.0000       7.740065       210.6179 
 107   0.0000       7.958440       216.5602 
 108   0.0000       7.958484       216.5614 
 109   0.0000       7.963794       216.7059 
 110   0.0000       7.963794       216.7059 
 111   0.0000       8.006915       217.8792 
 112   0.0000       8.007115       217.8847 
 113   0.0000       8.188015       222.8072 
 114   0.0000       8.188015       222.8072 
 115   0.0000       8.470018       230.4809 

                 SPIN DOWN ORBITALS
  NO   OCC          E(Eh)            E(eV) 
   0   1.0000    -234.932617     -6392.8415 
   1   1.0000     -27.211175      -740.4537 
   2   1.0000     -23.228753      -632.0865 
   3   1.0000     -23.228753      -632.0865 
   4   1.0000     -23.227198      -632.0442 
   5   1.0000      -3.056176       -83.1628 
   6   1.0000      -1.904940       -51.8361 
   7   1.0000      -1.904940       -51.8361 
   8   1.0000      -1.894294       -51.5464 
   9   1.0000      -0.255114        -6.9420 
  10   0.0000      -0.103028        -2.8035 
  11   0.0000      -0.102989        -2.8025 
  12   0.0000      -0.099295        -2.7020 
  13   0.0000      -0.099295        -2.7020 
  14   0.0000      -0.099141        -2.6978 
  15   0.0000      -0.028792        -0.7835 
  16   0.0000       0.014465         0.3936 
  17   0.0000       0.025819         0.7026 
  18   0.0000       0.025820         0.7026 
  19   0.0000       0.060453         1.6450 
  20   0.0000       0.060474         1.6456 
  21   0.0000       0.072095         1.9618 
  22   0.0000       0.131359         3.5745 
  23   0.0000       0.148055         4.0288 
  24   0.0000       0.170130         4.6295 
  25   0.0000       0.170134         4.6296 
  26   0.0000       0.197372         5.3708 
  27   0.0000       0.197810         5.3827 
  28   0.0000       0.211328         5.7505 
  29   0.0000       0.264590         7.1999 
  30   0.0000       0.307948         8.3797 
  31   0.0000       0.307979         8.3805 
  32   0.0000       0.335074         9.1178 
  33   0.0000       0.335080         9.1180 
  34   0.0000       0.338766         9.2183 
  35   0.0000       0.340020         9.2524 
  36   0.0000       0.341794         9.3007 
  37   0.0000       0.367143         9.9905 
  38   0.0000       0.367147         9.9906 
  39   0.0000       0.394625        10.7383 
  40   0.0000       0.519494        14.1361 
  41   0.0000       0.586662        15.9639 
  42   0.0000       0.655710        17.8428 
  43   0.0000       0.656758        17.8713 
  44   0.0000       0.720664        19.6103 
  45   0.0000       0.743401        20.2290 
  46   0.0000       0.743403        20.2290 
  47   0.0000       0.802114        21.8266 
  48   0.0000       0.802121        21.8268 
  49   0.0000       0.825486        22.4626 
  50   0.0000       0.825492        22.4628 
  51   0.0000       0.849289        23.1103 
  52   0.0000       0.952563        25.9205 
  53   0.0000       0.952872        25.9290 
  54   0.0000       0.967395        26.3242 
  55   0.0000       0.967397        26.3242 
  56   0.0000       0.972689        26.4682 
  57   0.0000       1.013490        27.5785 
  58   0.0000       1.013496        27.5786 
  59   0.0000       1.070518        29.1303 
  60   0.0000       1.070974        29.1427 
  61   0.0000       1.208596        32.8876 
  62   0.0000       1.332600        36.2619 
  63   0.0000       1.503950        40.9246 
  64   0.0000       1.503952        40.9246 
  65   0.0000       1.972748        53.6812 
  66   0.0000       2.309910        62.8558 
  67   0.0000       2.309910        62.8559 
  68   0.0000       2.323238        63.2185 
  69   0.0000       2.324775        63.2604 
  70   0.0000       2.326657        63.3115 
  71   0.0000       2.326657        63.3116 
  72   0.0000       2.430719        66.1432 
  73   0.0000       2.669570        72.6427 
  74   0.0000       2.769948        75.3741 
  75   0.0000       2.769949        75.3741 
  76   0.0000       2.777030        75.5668 
  77   0.0000       2.777030        75.5668 
  78   0.0000       2.785853        75.8069 
  79   0.0000       2.786242        75.8175 
  80   0.0000       2.806868        76.3788 
  81   0.0000       2.832622        77.0796 
  82   0.0000       2.833113        77.0929 
  83   0.0000       2.957307        80.4724 
  84   0.0000       2.957307        80.4724 
  85   0.0000       2.962845        80.6231 
  86   0.0000       3.292663        89.5979 
  87   0.0000       3.770191       102.5921 
  88   0.0000       3.770513       102.6009 
  89   0.0000       3.972129       108.0871 
  90   0.0000       3.972619       108.1004 
  91   0.0000       3.994759       108.7029 
  92   0.0000       3.994761       108.7030 
  93   0.0000       4.114573       111.9632 
  94   0.0000       4.114573       111.9632 
  95   0.0000       4.343589       118.1951 
  96   0.0000       4.343589       118.1951 
  97   0.0000       4.484942       122.0415 
  98   0.0000       4.631925       126.0411 
  99   0.0000       5.347498       145.5128 
 100   0.0000       7.628452       207.5807 
 101   0.0000       7.628452       207.5807 
 102   0.0000       7.645281       208.0387 
 103   0.0000       7.645830       208.0536 
 104   0.0000       7.690451       209.2678 
 105   0.0000       7.690451       209.2678 
 106   0.0000       8.003619       217.7895 
 107   0.0000       8.197416       223.0630 
 108   0.0000       8.197580       223.0675 
 109   0.0000       8.198892       223.1032 
 110   0.0000       8.198892       223.1032 
 111   0.0000       8.236968       224.1393 
 112   0.0000       8.237517       224.1542 
 113   0.0000       8.401507       228.6166 
 114   0.0000       8.401507       228.6166 
 115   0.0000       8.692496       236.5348 

                    ********************************
                    * MULLIKEN POPULATION ANALYSIS *
                    ********************************

--------------------------------------------
MULLIKEN ATOMIC CHARGES AND SPIN POPULATIONS
--------------------------------------------
   0 Mn:    0.239663    5.930610
   1 H :   -0.239663    0.069390
Sum of atomic charges         :    0.0000000
Sum of atomic spin populations:    6.0000000

-----------------------------------------------------
MULLIKEN REDUCED ORBITAL CHARGES AND SPIN POPULATIONS
-----------------------------------------------------
CHARGE
  0 Mns       :     7.044661  s :     7.044661
      pz      :     4.560209  p :    12.561161
      px      :     4.000476
      py      :     4.000476
      dz2     :     1.151397  d :     5.148332
      dxz     :     0.998570
      dyz     :     0.998570
      dx2y2   :     0.999890
      dxy     :     0.999905
      f0      :     0.005753  f :     0.005832
      f+1     :     0.000010
      f-1     :     0.000010
      f+2     :     0.000029
      f-2     :     0.000030
      f+3     :     0.000000
      f-3     :     0.000000
      g0      :     0.000339  g :     0.000351
      g+1     :     0.000003
      g-1     :     0.000003
      g+2     :     0.000003
      g-2     :     0.000003
      g+3     :     0.000000
      g-3     :     0.000000
      g+4     :     0.000000
      g-4     :     0.000000
  1 H s       :     1.225782  s :     1.225782
      pz      :     0.010909  p :     0.013107
      px      :     0.001099
      py      :     0.001099
      dz2     :     0.000949  d :     0.000774
      dxz     :    -0.000157
      dyz     :    -0.000157
      dx2y2   :     0.000077
      dxy     :     0.000062

SPIN
  0 Mns       :     0.709900  s :     0.709900
      pz      :     0.405761  p :     0.406527
      px      :     0.000383
      py      :     0.000383
      dz2     :     0.818657  d :     4.815579
      dxz     :     0.998563
      dyz     :     0.998563
      dx2y2   :     0.999890
      dxy     :     0.999905
      f0      :    -0.001345  f :    -0.001279
      f+1     :     0.000003
      f-1     :     0.000003
      f+2     :     0.000029
      f-2     :     0.000030
      f+3     :     0.000000
      f-3     :     0.000000
      g0      :    -0.000127  g :    -0.000117
      g+1     :     0.000002
      g-1     :     0.000002
      g+2     :     0.000003
      g-2     :     0.000003
      g+3     :    -0.000000
      g-3     :    -0.000000
      g+4     :     0.000000
      g-4     :    -0.000000
  1 H s       :     0.059322  s :     0.059322
      pz      :     0.007635  p :     0.009997
      px      :     0.001181
      py      :     0.001181
      dz2     :     0.000198  d :     0.000071
      dxz     :    -0.000133
      dyz     :    -0.000133
      dx2y2   :     0.000077
      dxy     :     0.000062


                     *******************************
                     * LOEWDIN POPULATION ANALYSIS *
                     *******************************

-------------------------------------------
LOEWDIN ATOMIC CHARGES AND SPIN POPULATIONS
-------------------------------------------
   0 Mn:    0.564727    5.791957
   1 H :   -0.564727    0.208043

----------------------------------------------------
LOEWDIN REDUCED ORBITAL CHARGES AND SPIN POPULATIONS
----------------------------------------------------
CHARGE
  0 Mns       :     6.751360  s :     6.751360
      pz      :     4.640565  p :    12.578987
      px      :     3.969211
      py      :     3.969211
      dz2     :     1.157960  d :     5.078223
      dxz     :     0.963354
      dyz     :     0.963354
      dx2y2   :     0.996771
      dxy     :     0.996784
      f0      :     0.022148  f :     0.024932
      f+1     :     0.001256
      f-1     :     0.001256
      f+2     :     0.000135
      f-2     :     0.000136
      f+3     :     0.000000
      f-3     :     0.000000
      g0      :     0.001466  g :     0.001771
      g+1     :     0.000139
      g-1     :     0.000139
      g+2     :     0.000014
      g-2     :     0.000014
      g+3     :     0.000000
      g-3     :     0.000000
      g+4     :     0.000000
      g-4     :     0.000000
  1 H s       :     1.108281  s :     1.108281
      pz      :     0.204523  p :     0.253718
      px      :     0.024598
      py      :     0.024598
      dz2     :     0.113696  d :     0.202728
      dxz     :     0.041443
      dyz     :     0.041443
      dx2y2   :     0.003081
      dxy     :     0.003066

SPIN
  0 Mns       :     0.573886  s :     0.573886
      pz      :     0.490123  p :     0.496367
      px      :     0.003122
      py      :     0.003122
      dz2     :     0.798927  d :     4.716487
      dxz     :     0.962003
      dyz     :     0.962003
      dx2y2   :     0.996771
      dxy     :     0.996784
      f0      :     0.002661  f :     0.004630
      f+1     :     0.000849
      f-1     :     0.000849
      f+2     :     0.000135
      f-2     :     0.000136
      f+3     :     0.000000
      f-3     :     0.000000
      g0      :     0.000316  g :     0.000585
      g+1     :     0.000121
      g-1     :     0.000121
      g+2     :     0.000014
      g-2     :     0.000014
      g+3     :    -0.000000
      g-3     :    -0.000000
      g+4     :     0.000000
      g-4     :    -0.000000
  1 H s       :     0.070618  s :     0.070618
      pz      :     0.060085  p :     0.088521
      px      :     0.014218
      py      :     0.014218
      dz2     :     0.003384  d :     0.048904
      dxz     :     0.019687
      dyz     :     0.019687
      dx2y2   :     0.003081
      dxy     :     0.003066


                      *****************************
                      * MAYER POPULATION ANALYSIS *
                      *****************************

  NA   - Mulliken gross atomic population
  ZA   - Total nuclear charge
  QA   - Mulliken gross atomic charge
  VA   - Mayer's total valence
  BVA  - Mayer's bonded valence
  FA   - Mayer's free valence

  ATOM       NA         ZA         QA         VA         BVA        FA
  0 Mn    24.7603    25.0000     0.2397     6.7313     0.9369     5.7943
  1 H      1.2397     1.0000    -0.2397     0.9490     0.9369     0.0121

  Mayer bond orders larger than 0.100000
B(  0-Mn,  1-H ) :   0.9369 

-------
TIMINGS
-------

Total SCF time: 0 days 0 hours 0 min 2 sec 

Total time                  ....       2.594 sec
Sum of individual times     ....       2.466 sec  ( 95.1%)

Fock matrix formation       ....       2.142 sec  ( 82.6%)
  Split-RI-J                ....       1.584 sec  ( 74.0% of F)
  XC integration            ....       0.489 sec  ( 22.8% of F)
    Basis function eval.    ....       0.055 sec  ( 11.2% of XC)
    Density eval.           ....       0.049 sec  ( 10.0% of XC)
    XC-Functional eval.     ....       0.012 sec  (  2.4% of XC)
    XC-Potential eval.      ....       0.154 sec  ( 31.5% of XC)
Diagonalization             ....       0.047 sec  (  1.8%)
Density matrix formation    ....       0.007 sec  (  0.3%)
Population analysis         ....       0.005 sec  (  0.2%)
Initial guess               ....       0.121 sec  (  4.7%)
Orbital Transformation      ....       0.000 sec  (  0.0%)
Orbital Orthonormalization  ....       0.000 sec  (  0.0%)
DIIS solution               ....       0.019 sec  (  0.7%)
Grid generation             ....       0.124 sec  (  4.8%)


-------------------------------------------------------------------------------
                          DFT DISPERSION CORRECTION                            
                                                                               
                              DFTD3 V3.1  Rev 1                                
                          USING Becke-Johnson damping                          
-------------------------------------------------------------------------------
The SCAN functional is recognized
Active option DFTDOPT                   ...         4   

molecular C6(AA) [au] = 642.224730 


            DFT-D V3
 parameters
 s6 scaling factor         :     1.0000 
 a1 scaling factor         :     0.5380 
 s8 scaling factor         :     0.0000 
 a2 scaling factor         :     5.4200 
 ad hoc parameters k1-k3   :    16.0000     1.3333    -4.0000 

 Edisp/kcal,au: -0.060830954523  -0.000096940286 
 E6   /kcal   :  -0.060830955 
 E8   /kcal   :  -0.000000000 
 % E8         :   0.000000000 

-------------------------   ----------------
Dispersion correction           -0.000096940
-------------------------   ----------------


-------------------------   --------------------
FINAL SINGLE POINT ENERGY     -1151.701774642127
-------------------------   --------------------


                            ***************************************
                            *     ORCA property calculations      *
                            ***************************************

                                    ---------------------
                                    Active property flags
                                    ---------------------
   (+) Dipole Moment


------------------------------------------------------------------------------
                       ORCA ELECTRIC PROPERTIES CALCULATION
------------------------------------------------------------------------------

Dipole Moment Calculation                       ... on
Quadrupole Moment Calculation                   ... off
Polarizability Calculation                      ... off
GBWName                                         ... 25_MnH.gbw
Electron density file                           ... 25_MnH.scfp
The origin for moment calculation is the CENTER OF MASS  = ( 0.000000,  0.000000  0.321728)

-------------
DIPOLE MOMENT
-------------
                                X             Y             Z
Electronic contribution:      0.00000       0.00000      -2.18738
Nuclear contribution   :      0.00000       0.00000       1.72930
                        -----------------------------------------
Total Dipole Moment    :      0.00000       0.00000      -0.45808
                        -----------------------------------------
Magnitude (a.u.)       :      0.45808
Magnitude (Debye)      :      1.16436



--------------------
Rotational spectrum 
--------------------
 
Rotational constants in cm-1:     0.000000     5.746491     5.746491 
Rotational constants in MHz :     0.000000 172275.461427 172275.461427 

 Dipole components along the rotational axes: 
x,y,z [a.u.] :    -0.458084     0.000000     0.000000 
x,y,z [Debye]:    -1.164357     0.000000     0.000000 

 

Timings for individual modules:

Sum of individual times         ...        5.519 sec (=   0.092 min)
GTO integral calculation        ...        2.604 sec (=   0.043 min)  47.2 %
SCF iterations                  ...        2.915 sec (=   0.049 min)  52.8 %
                             ****ORCA TERMINATED NORMALLY****
TOTAL RUN TIME: 0 days 0 hours 0 minutes 6 seconds 86 msec
