
                                 *****************
                                 * O   R   C   A *
                                 *****************

           --- An Ab Initio, DFT and Semiempirical electronic structure package ---

                  #######################################################
                  #                        -***-                        #
                  #          Department of theory and spectroscopy      #
                  #               Directorship: Frank Neese             #
                  #        Max Planck Institute fuer Kohlenforschung    #
                  #                Kaiser Wilhelm Platz 1               #
                  #                 D-45470 Muelheim/Ruhr               #
                  #                      Germany                        #
                  #                                                     #
                  #                  All rights reserved                #
                  #                        -***-                        #
                  #######################################################


                         Program Version 4.2.0 -  RELEASE  -


 With contributions from (in alphabetic order):
   Daniel Aravena         : Magnetic Suceptibility
   Michael Atanasov       : Ab Initio Ligand Field Theory (pilot matlab implementation)
   Alexander A. Auer      : GIAO ZORA, VPT2
   Ute Becker             : Parallelization
   Giovanni Bistoni       : ED, misc. LED, open-shell LED, HFLED
   Martin Brehm           : Molecular dynamics
   Dmytro Bykov           : SCF Hessian
   Vijay G. Chilkuri      : MRCI spin determinant printing, contributions to CSF-ICE
   Dipayan Datta          : RHF DLPNO-CCSD density
   Achintya Kumar Dutta   : EOM-CC, STEOM-CC
   Dmitry Ganyushin       : Spin-Orbit,Spin-Spin,Magnetic field MRCI
   Miquel Garcia          : C-PCM Hessian, Gaussian charge scheme
   Yang Guo               : DLPNO-NEVPT2, CIM, IAO-localization
   Andreas Hansen         : Spin unrestricted coupled pair/coupled cluster methods
   Benjamin Helmich-Paris : CASSCF linear response (MC-RPA)
   Lee Huntington         : MR-EOM, pCC
   Robert Izsak           : Overlap fitted RIJCOSX, COSX-SCS-MP3, EOM
   Christian Kollmar      : KDIIS, OOCD, Brueckner-CCSD(T), CCSD density
   Simone Kossmann        : Meta GGA functionals, TD-DFT gradient, OOMP2, MP2 Hessian
   Martin Krupicka        : AUTO-CI
   Lucas Lang             : DCDCAS
   Dagmar Lenk            : GEPOL surface, SMD
   Dimitrios Liakos       : Extrapolation schemes; Compound Job, initial MDCI parallelization
   Dimitrios Manganas     : Further ROCIS development; embedding schemes
   Dimitrios Pantazis     : SARC Basis sets
   Taras Petrenko         : DFT Hessian,TD-DFT gradient, ASA, ECA, R-Raman, ABS, FL, XAS/XES, NRVS
   Peter Pinski           : DLPNO-MP2, DLPNO-MP2 Gradient
   Christoph Reimann      : Effective Core Potentials
   Marius Retegan         : Local ZFS, SOC
   Christoph Riplinger    : Optimizer, TS searches, QM/MM, DLPNO-CCSD(T), (RO)-DLPNO pert. Triples
   Tobias Risthaus        : Range-separated hybrids, TD-DFT gradient, RPA, STAB
   Michael Roemelt        : Original ROCIS implementation
   Masaaki Saitow         : Open-shell DLPNO-CCSD energy and density
   Barbara Sandhoefer     : DKH picture change effects
   Avijit Sen             : IP-ROCIS
   Kantharuban Sivalingam : CASSCF convergence, NEVPT2, FIC-MRCI
   Bernardo de Souza      : ESD, SOC TD-DFT
   Georgi Stoychev        : AutoAux, RI-MP2 NMR
   Willem Van den Heuvel  : Paramagnetic NMR
   Boris Wezisla          : Elementary symmetry handling
   Frank Wennmohs         : Technical directorship


 We gratefully acknowledge several colleagues who have allowed us to
 interface, adapt or use parts of their codes:
   Stefan Grimme, W. Hujo, H. Kruse,             : VdW corrections, initial TS optimization,
                  C. Bannwarth                     DFT functionals, gCP, sTDA/sTD-DF
   Ed Valeev, F. Pavosevic, A. Kumar             : LibInt (2-el integral package), F12 methods
   Garnet Chan, S. Sharma, J. Yang, R. Olivares  : DMRG
   Ulf Ekstrom                                   : XCFun DFT Library
   Mihaly Kallay                                 : mrcc  (arbitrary order and MRCC methods)
   Andreas Klamt, Michael Diedenhofen            : otool_cosmo (COSMO solvation model)
   Jiri Pittner, Ondrej Demel                    : Mk-CCSD
   Frank Weinhold                                : gennbo (NPA and NBO analysis)
   Christopher J. Cramer and Donald G. Truhlar   : smd solvation model
   Lars Goerigk                                  : TD-DFT with DH, B97 family of functionals
   V. Asgeirsson, H. Jonsson                     : NEB implementation
   FAccTs GmbH                                   : IRC, NEB, NEB-TS, Multilevel, MM, QM/MM, CI optimization
   S Lehtola, MJT Oliveira, MAL Marques          : LibXC Library


 Your calculation uses the libint2 library for the computation of 2-el integrals
 For citations please refer to: http://libint.valeyev.net

 Your ORCA version has been built with support for libXC version: 4.2.3
 For citations please refer to: https://tddft.org/programs/libxc/

 This ORCA versions uses:
   CBLAS   interface :  Fast vector & matrix operations
   LAPACKE interface :  Fast linear algebra routines
   SCALAPACK package :  Parallel linear algebra routines


Your calculation utilizes the atom-pairwise dispersion correction
with the Becke-Johnson damping scheme (D3BJ)
Cite in your paper:
S.Grimme, S.Ehrlich, L.Goerigk, J Comput Chem, (2011), 32, 1456–1465 
S.Grimme, J.Antony, S.Ehrlich and H.Krieg, J.Chem.Phys., 132, (2010), 154104 
   

----- Orbital basis set information -----
Your calculation utilizes the basis: aug-cc-pVTZ 
    H, B-Ne : Obtained from the ccRepo (grant-hill.group.shef.ac.uk/ccrepo) Feb. 2017
              R. A. Kendall, T. H. Dunning, Jr., R. J. Harrison, J. Chem. Phys. 96, 6796 (1992)
         He : Obtained from the ccRepo (grant-hill.group.shef.ac.uk/ccrepo) Feb. 2017
              D. E. Woon, T. H. Dunning, Jr., J. Chem. Phys. 100, 2975 (1994)
  Li-Be, Na : Obtained from the ccRepo (grant-hill.group.shef.ac.uk/ccrepo) Feb. 2017
              B. P. Prascher, D. E. Woon, K. A. Peterson, T. H. Dunning, Jr., A. K. Wilson, Theor. Chem. Acc. 128, 69 (2011)
         Mg : Obtained from the Peterson Research Group Website (tyr0.chem.wsu.edu/~kipeters) Feb. 2017
              B. P. Prascher, D. E. Woon, K. A. Peterson, T. H. Dunning, Jr., A. K. Wilson, Theor. Chem. Acc. 128, 69 (2011)
      Al-Ar : Obtained from the ccRepo (grant-hill.group.shef.ac.uk/ccrepo) Feb. 2017
              D. E. Woon, T. H. Dunning, Jr., J. Chem. Phys. 98, 1358 (1993)
      Sc-Zn : Obtained from the ccRepo (grant-hill.group.shef.ac.uk/ccrepo) Feb. 2017
              N. B. Balabanov, K. A. Peterson, J. Chem. Phys. 123, 064107 (2005)
              N. B. Balabanov, K. A. Peterson, J. Chem. Phys. 125, 074110 (2006)
      Ga-Kr : Obtained from the ccRepo (grant-hill.group.shef.ac.uk/ccrepo) Feb. 2017
              A. K. Wilson, D. E. Woon, K. A. Peterson, T. H. Dunning, Jr., J. Chem. Phys. 110, 7667 (1999)
     Ag, Au : Obtained from the Peterson Research Group Website (tyr0.chem.wsu.edu/~kipeters) Feb. 2017
              K. A. Peterson, C. Puzzarini, Theor. Chem. Acc. 114, 283 (2005)

----- AuxJ basis set information -----
Your calculation utilizes the auxiliary basis: def2/J
   F. Weigend, Phys. Chem. Chem. Phys. 8, 1057 (2006).

================================================================================
                                        WARNINGS
                       Please study these warnings very carefully!
================================================================================


WARNING: your system is open-shell and RHF/RKS was chosen
  ===> : WILL SWITCH to UHF/UKS


WARNING: The SCAN functional is very grid-sensitive!
         Use at least GRID5 and a higher intacc

INFO   : the flag for use of LIBINT has been found!

================================================================================
                                       INPUT FILE
================================================================================
NAME = 31_FeH.in
|  1> #
|  2> # 31_FeH scanfunc/aug-cc-pvtz
|  3> #
|  4> ! scanfunc d3bj aug-cc-pvtz def2/j grid4 nofinalgrid
|  5> 
|  6> *xyz 0 4
|  7>   Fe  0.00000000000000      0.00000000000000      0.22838748047068
|  8>   H   0.00000000000000      0.00000000000000      1.77161251952932
|  9> *
| 10> 
| 11> %pal
| 12> nprocs 24
| 13> end
| 14> 
| 15> 
| 16>                          ****END OF INPUT****
================================================================================

                       ****************************
                       * Single Point Calculation *
                       ****************************

---------------------------------
CARTESIAN COORDINATES (ANGSTROEM)
---------------------------------
  Fe     0.000000    0.000000    0.228387
  H      0.000000    0.000000    1.771613

----------------------------
CARTESIAN COORDINATES (A.U.)
----------------------------
  NO LB      ZA    FRAG     MASS         X           Y           Z
   0 Fe   26.0000    0    55.850    0.000000    0.000000    0.431590
   1 H     1.0000    0     1.008    0.000000    0.000000    3.347862

--------------------------------
INTERNAL COORDINATES (ANGSTROEM)
--------------------------------
 Fe     0   0   0     0.000000000000     0.00000000     0.00000000
 H      1   0   0     1.543225039059     0.00000000     0.00000000

---------------------------
INTERNAL COORDINATES (A.U.)
---------------------------
 Fe     0   0   0     0.000000000000     0.00000000     0.00000000
 H      1   0   0     2.916272686831     0.00000000     0.00000000

---------------------
BASIS SET INFORMATION
---------------------
There are 2 groups of distinct atoms

 Group   1 Type Fe  : 116s77p23d3f2g contracted to 8s7p5d3f2g pattern {19191919191911/151515151511/77711/111/11}
 Group   2 Type H   : 6s3p2d contracted to 4s3p2d pattern {3111/111/11}

Atom   0Fe   basis set group =>   1
Atom   1H    basis set group =>   2
---------------------------------
AUXILIARY/J BASIS SET INFORMATION
---------------------------------
There are 2 groups of distinct atoms

 Group   1 Type Fe  : 19s5p5d3f3g contracted to 8s5p5d2f3g pattern {121111111/11111/11111/21/111}
 Group   2 Type H   : 5s2p1d contracted to 3s1p1d pattern {311/2/1}

Atom   0Fe   basis set group =>   1
Atom   1H    basis set group =>   2


           ************************************************************
           *        Program running with 24 parallel MPI-processes    *
           *              working on a common directory               *
           ************************************************************
------------------------------------------------------------------------------
                           ORCA GTO INTEGRAL CALCULATION
                           -- RI-GTO INTEGRALS CHOSEN --
------------------------------------------------------------------------------

                         BASIS SET STATISTICS AND STARTUP INFO

Gaussian basis set:
 # of primitive gaussian shells          ...  232
 # of primitive gaussian functions       ...  526
 # of contracted shells                  ...   34
 # of contracted basis functions         ...  116
 Highest angular momentum                ...    4
 Maximum contraction depth               ...   19
Auxiliary gaussian basis set:
 # of primitive gaussian shells          ...   43
 # of primitive gaussian functions       ...  123
 # of contracted shells                  ...   28
 # of contracted aux-basis functions     ...  100
 Highest angular momentum                ...    4
 Maximum contraction depth               ...   12
Ratio of auxiliary to basis functions    ...  0.86
Integral package used                  ... LIBINT
 One Electron integrals                  ... done
 Ordering auxiliary basis shells         ... done
 Integral threshhold             Thresh  ...  1.000e-10
 Primitive cut-off               TCut    ...  1.000e-11
 Pre-screening matrix                    ... done
 Shell pair data                         ... 
 Ordering of the shell pairs             ... done (   0.000 sec) 595 of 595 pairs
 Determination of significant pairs      ... done (   0.000 sec)
 Creation of shell pair data             ... done (   0.001 sec)
 Storage of shell pair data              ... done (   0.032 sec)
 Shell pair data done in (   0.033 sec)
 Computing two index integrals           ... done
 Cholesky decomposition of the V-matrix  ... done


Timings:
 Total evaluation time                   ...   2.137 sec (  0.036 min)
 One electron matrix time                ...   0.034 sec (  0.001 min) =  1.6%
 Schwartz matrix evaluation time         ...   2.040 sec (  0.034 min) = 95.4%
 Two index repulsion integral time       ...   0.001 sec (  0.000 min) =  0.0%
 Cholesky decomposition of V             ...   0.001 sec (  0.000 min) =  0.0%
 Three index repulsion integral time     ...   0.000 sec (  0.000 min) =  0.0%



           ************************************************************
           *        Program running with 24 parallel MPI-processes    *
           *              working on a common directory               *
           ************************************************************
-------------------------------------------------------------------------------
                                 ORCA SCF
-------------------------------------------------------------------------------

------------
SCF SETTINGS
------------
Hamiltonian:
 Density Functional     Method          .... DFT(GTOs)
 Exchange Functional    Exchange        .... SCAN
 Correlation Functional Correlation     .... SCAN
 Gradients option       PostSCFGGA      .... off
   Density functional embedding theory  .... OFF
   NL short-range parameter             ....  6.400000
 RI-approximation to the Coulomb term is turned on
   Number of auxiliary basis functions  .... 100


General Settings:
 Integral files         IntName         .... 31_FeH
 Hartree-Fock type      HFTyp           .... UHF
 Total Charge           Charge          ....    0
 Multiplicity           Mult            ....    4
 Number of Electrons    NEL             ....   27
 Basis Dimension        Dim             ....  116
 Nuclear Repulsion      ENuc            ....      8.9154900080 Eh

Convergence Acceleration:
 DIIS                   CNVDIIS         .... on
   Start iteration      DIISMaxIt       ....    12
   Startup error        DIISStart       ....  0.200000
   # of expansion vecs  DIISMaxEq       ....     5
   Bias factor          DIISBfac        ....   1.050
   Max. coefficient     DIISMaxC        ....  10.000
 Newton-Raphson         CNVNR           .... off
 SOSCF                  CNVSOSCF        .... off
 Level Shifting         CNVShift        .... on
   Level shift para.    LevelShift      ....    0.2500
   Turn off err/grad.   ShiftErr        ....    0.0010
 Zerner damping         CNVZerner       .... off
 Static damping         CNVDamp         .... on
   Fraction old density DampFac         ....    0.7000
   Max. Damping (<1)    DampMax         ....    0.9800
   Min. Damping (>=0)   DampMin         ....    0.0000
   Turn off err/grad.   DampErr         ....    0.1000
 Fernandez-Rico         CNVRico         .... off

SCF Procedure:
 Maximum # iterations   MaxIter         ....   125
 SCF integral mode      SCFMode         .... Direct
   Integral package                     .... LIBINT
 Reset frequency        DirectResetFreq ....    20
 Integral Threshold     Thresh          ....  1.000e-10 Eh
 Primitive CutOff       TCut            ....  1.000e-11 Eh

Convergence Tolerance:
 Convergence Check Mode ConvCheckMode   .... Total+1el-Energy
 Convergence forced     ConvForced      .... 0
 Energy Change          TolE            ....  1.000e-06 Eh
 1-El. energy change                    ....  1.000e-03 Eh
 DIIS Error             TolErr          ....  1.000e-06


Diagonalization of the overlap matrix:
Smallest eigenvalue                        ... 6.010e-05
Time for diagonalization                   ...    0.003 sec
Threshold for overlap eigenvalues          ... 1.000e-08
Number of eigenvalues below threshold      ... 0
Time for construction of square roots      ...    0.002 sec
Total time needed                          ...    0.005 sec

-------------------
DFT GRID GENERATION
-------------------

General Integration Accuracy     IntAcc      ...  4.670
Radial Grid Type                 RadialGrid  ... Gauss-Chebyshev
Angular Grid (max. acc.)         AngularGrid ... Lebedev-302
Angular grid pruning method      GridPruning ... 3 (G Style)
Weight generation scheme         WeightScheme... Becke
Basis function cutoff            BFCut       ...    1.0000e-10
Integration weight cutoff        WCut        ...    1.0000e-14
Grids for H and He will be reduced by one unit

# of grid points (after initial pruning)     ...  13034 (   0.0 sec)
# of grid points (after weights+screening)   ...  12994 (   0.0 sec)
nearest neighbour list constructed           ...    0.0 sec
Grid point re-assignment to atoms done       ...    0.0 sec
Grid point division into batches done        ...    0.1 sec
Reduced shell lists constructed in    0.1 sec

Total number of grid points                  ...    12994
Total number of batches                      ...      204
Average number of points per batch           ...       63
Average number of grid points per atom       ...     6497
Average number of shells per batch           ...    14.90 (43.82%)
Average number of basis functions per batch  ...    33.50 (28.88%)
Average number of large shells per batch     ...     8.00 (53.69%)
Average number of large basis fcns per batch ...    18.80 (56.12%)
Maximum spatial batch extension              ...  31.41, 28.57, 18.66 au
Average spatial batch extension              ...   1.02,  0.94,  0.71 au

Time for grid setup =    0.120 sec

------------------------------
INITIAL GUESS: MODEL POTENTIAL
------------------------------
Loading Hartree-Fock densities                     ... done
Calculating cut-offs                               ... done
Setting up the integral package                    ... done
Initializing the effective Hamiltonian             ... done
Starting the Coulomb interaction                   ... done (   0.0 sec)
Reading the grid                                   ... done
Mapping shells                                     ... done
Starting the XC term evaluation                    ... done (   0.0 sec)
  promolecular density results
     # of electrons  =     26.999503944
     EX              =    -61.586223539
     EC              =     -0.475719928
     EX+EC           =    -62.061943467
Transforming the Hamiltonian                       ... done (   0.0 sec)
Diagonalizing the Hamiltonian                      ... done (   0.0 sec)
Back transforming the eigenvectors                 ... done (   0.0 sec)
Now organizing SCF variables                       ... done
                      ------------------
                      INITIAL GUESS DONE (   0.2 sec)
                      ------------------
--------------
SCF ITERATIONS
--------------
ITER       Energy         Delta-E        Max-DP      RMS-DP      [F,P]     Damp
               ***  Starting incremental Fock matrix formation  ***
  0  -1263.6123720954   0.000000000000 7.20044665  0.06658232  0.9376717 0.7000
  1  -1263.4062447283   0.206127367052 2.15744983  0.01995552  0.2382144 0.7000
  2  -1263.7955346747  -0.389289946424 1.51220060  0.01418505  0.2658741 0.7000
  3  -1263.9547222497  -0.159187574931 1.05868640  0.00995914  0.2601745 0.7000
                               ***Turning on DIIS***
  4  -1264.0750570717  -0.120334822042 0.74129447  0.00693000  0.1404554 0.7000
  5  -1264.1549694536  -0.079912381862 1.73072584  0.01615153  0.0517642 0.0000
  6  -1264.3411393570  -0.186169903452 0.04424217  0.00079470  0.0322894 0.0000
  7  -1264.3469766528  -0.005837295827 0.01463991  0.00035984  0.0346248 0.0000
  8  -1264.3487700875  -0.001793434636 0.01529504  0.00026122  0.0139694 0.0000
  9  -1264.3499224327  -0.001152345191 0.00835414  0.00013724  0.0048140 0.0000
 10  -1264.3502582970  -0.000335864380 0.00424698  0.00007944  0.0019659 0.0000
 11  -1264.3503820675  -0.000123770454 0.00233247  0.00005139  0.0012553 0.0000
 12  -1264.3504370848  -0.000055017279 0.00444598  0.00008010  0.0008247 0.0000
 13  -1264.3504804435  -0.000043358707 0.00197133  0.00002952  0.0008626 0.0000
 14  -1264.3504850653  -0.000004621848 0.00164700  0.00003029  0.0003500 0.0000
 15  -1264.3504884090  -0.000003343628 0.00051302  0.00000953  0.0001032 0.0000
 16  -1264.3504892568  -0.000000847871 0.00077469  0.00001376  0.0002215 0.0000
 17  -1264.3504904185  -0.000001161685 0.00018302  0.00000310  0.0000133 0.0000
                 **** Energy Check signals convergence ****

               *****************************************************
               *                     SUCCESS                       *
               *           SCF CONVERGED AFTER  18 CYCLES          *
               *****************************************************


----------------
TOTAL SCF ENERGY
----------------

Total Energy       :        -1264.35049064 Eh          -34404.72595 eV

Components:
Nuclear Repulsion  :            8.91549001 Eh             242.60282 eV
Electronic Energy  :        -1273.26598064 Eh          -34647.32877 eV
One Electron Energy:        -1766.02890076 Eh          -48056.08951 eV
Two Electron Energy:          492.76292012 Eh           13408.76074 eV

Virial components:
Potential Energy   :        -2526.59708396 Eh          -68752.20195 eV
Kinetic Energy     :         1262.24659332 Eh           34347.47600 eV
Virial Ratio       :            2.00166679


DFT components:
N(Alpha)           :       15.000006143466 electrons
N(Beta)            :       12.000005796007 electrons
N(Total)           :       27.000011939474 electrons
E(X)               :      -54.942733897420 Eh       
E(C)               :       -1.178558378413 Eh       
E(XC)              :      -56.121292275834 Eh       
DFET-embed. en.    :        0.000000000000 Eh       

---------------
SCF CONVERGENCE
---------------

  Last Energy change         ...   -2.1724e-07  Tolerance :   1.0000e-06
  Last MAX-Density change    ...    9.3068e-05  Tolerance :   1.0000e-05
  Last RMS-Density change    ...    9.7640e-07  Tolerance :   1.0000e-06
  Last DIIS Error            ...    5.7457e-06  Tolerance :   1.0000e-06

             **** THE GBW FILE WAS UPDATED (31_FeH.gbw) ****
             **** DENSITY FILE WAS UPDATED (31_FeH.scfp) ****
             **** ENERGY FILE WAS UPDATED (31_FeH.en.tmp) ****
----------------------
UHF SPIN CONTAMINATION
----------------------

Warning: in a DFT calculation there is little theoretical justification to 
         calculate <S**2> as in Hartree-Fock theory. We will do it anyways
         but you should keep in mind that the values have only limited relevance

Expectation value of <S**2>     :     3.806553
Ideal value S*(S+1) for S=1.5   :     3.750000
Deviation                       :     0.056553

             **** THE GBW FILE WAS UPDATED (31_FeH.gbw) ****
             **** DENSITY FILE WAS UPDATED (31_FeH.scfp) ****
----------------
ORBITAL ENERGIES
----------------
                 SPIN UP ORBITALS
  NO   OCC          E(Eh)            E(eV) 
   0   1.0000    -255.508346     -6952.7356 
   1   1.0000     -29.807632      -811.1069 
   2   1.0000     -25.637136      -697.6219 
   3   1.0000     -25.637136      -697.6219 
   4   1.0000     -25.603934      -696.7185 
   5   1.0000      -3.381256       -92.0087 
   6   1.0000      -2.169416       -59.0328 
   7   1.0000      -2.169416       -59.0328 
   8   1.0000      -2.109409       -57.3999 
   9   1.0000      -0.268673        -7.3110 
  10   1.0000      -0.230322        -6.2674 
  11   1.0000      -0.230307        -6.2670 
  12   1.0000      -0.196710        -5.3528 
  13   1.0000      -0.172584        -4.6963 
  14   1.0000      -0.172584        -4.6962 
  15   0.0000      -0.088800        -2.4164 
  16   0.0000      -0.034566        -0.9406 
  17   0.0000      -0.034566        -0.9406 
  18   0.0000       0.017781         0.4838 
  19   0.0000       0.026405         0.7185 
  20   0.0000       0.037437         1.0187 
  21   0.0000       0.037437         1.0187 
  22   0.0000       0.077001         2.0953 
  23   0.0000       0.083903         2.2831 
  24   0.0000       0.083947         2.2843 
  25   0.0000       0.085017         2.3134 
  26   0.0000       0.085021         2.3136 
  27   0.0000       0.100070         2.7230 
  28   0.0000       0.138681         3.7737 
  29   0.0000       0.196482         5.3465 
  30   0.0000       0.199374         5.4253 
  31   0.0000       0.199375         5.4253 
  32   0.0000       0.233349         6.3497 
  33   0.0000       0.269805         7.3418 
  34   0.0000       0.269806         7.3418 
  35   0.0000       0.282402         7.6845 
  36   0.0000       0.282417         7.6849 
  37   0.0000       0.345015         9.3883 
  38   0.0000       0.347329         9.4513 
  39   0.0000       0.347330         9.4513 
  40   0.0000       0.528917        14.3926 
  41   0.0000       0.561897        15.2900 
  42   0.0000       0.730035        19.8653 
  43   0.0000       0.745523        20.2867 
  44   0.0000       0.745911        20.2973 
  45   0.0000       0.766110        20.8469 
  46   0.0000       0.766112        20.8470 
  47   0.0000       0.854018        23.2390 
  48   0.0000       0.854018        23.2390 
  49   0.0000       0.895112        24.3572 
  50   0.0000       0.895113        24.3573 
  51   0.0000       0.937955        25.5230 
  52   0.0000       1.010284        27.4912 
  53   0.0000       1.018443        27.7132 
  54   0.0000       1.018466        27.7139 
  55   0.0000       1.055598        28.7243 
  56   0.0000       1.055705        28.7272 
  57   0.0000       1.092191        29.7200 
  58   0.0000       1.092193        29.7201 
  59   0.0000       1.143868        31.1262 
  60   0.0000       1.143877        31.1265 
  61   0.0000       1.387710        37.7615 
  62   0.0000       1.513354        41.1804 
  63   0.0000       1.722880        46.8820 
  64   0.0000       1.722902        46.8825 
  65   0.0000       2.226025        60.5732 
  66   0.0000       2.676393        72.8284 
  67   0.0000       2.676393        72.8284 
  68   0.0000       2.706394        73.6447 
  69   0.0000       2.706394        73.6447 
  70   0.0000       2.745215        74.7011 
  71   0.0000       2.745336        74.7044 
  72   0.0000       2.787790        75.8596 
  73   0.0000       2.970951        80.8437 
  74   0.0000       3.060725        83.2866 
  75   0.0000       3.060725        83.2866 
  76   0.0000       3.078023        83.7573 
  77   0.0000       3.354770        91.2879 
  78   0.0000       3.354881        91.2910 
  79   0.0000       3.362524        91.4989 
  80   0.0000       3.368150        91.6520 
  81   0.0000       3.368866        91.6715 
  82   0.0000       3.375218        91.8444 
  83   0.0000       3.375218        91.8444 
  84   0.0000       3.413781        92.8937 
  85   0.0000       3.413785        92.8938 
  86   0.0000       3.622029        98.5604 
  87   0.0000       3.939276       107.1932 
  88   0.0000       3.940508       107.2267 
  89   0.0000       4.169334       113.4533 
  90   0.0000       4.169334       113.4533 
  91   0.0000       4.515395       122.8701 
  92   0.0000       4.515417       122.8708 
  93   0.0000       4.590409       124.9114 
  94   0.0000       4.590410       124.9114 
  95   0.0000       4.926041       134.0444 
  96   0.0000       4.926043       134.0444 
  97   0.0000       4.949399       134.6800 
  98   0.0000       5.293855       144.0531 
  99   0.0000       5.969217       162.4307 
 100   0.0000       8.949550       243.5296 
 101   0.0000       8.949550       243.5296 
 102   0.0000       9.032452       245.7855 
 103   0.0000       9.032514       245.7872 
 104   0.0000       9.095567       247.5030 
 105   0.0000       9.095567       247.5030 
 106   0.0000       9.406738       255.9704 
 107   0.0000       9.795225       266.5416 
 108   0.0000       9.795230       266.5418 
 109   0.0000       9.846315       267.9318 
 110   0.0000       9.846315       267.9318 
 111   0.0000       9.894840       269.2523 
 112   0.0000       9.894930       269.2547 
 113   0.0000      10.115760       275.2638 
 114   0.0000      10.115760       275.2638 
 115   0.0000      10.405388       283.1450 

                 SPIN DOWN ORBITALS
  NO   OCC          E(Eh)            E(eV) 
   0   1.0000    -255.503084     -6952.5924 
   1   1.0000     -29.788741      -810.5929 
   2   1.0000     -25.601853      -696.6618 
   3   1.0000     -25.601853      -696.6618 
   4   1.0000     -25.592494      -696.4072 
   5   1.0000      -3.232387       -87.9577 
   6   1.0000      -2.011554       -54.7372 
   7   1.0000      -2.003203       -54.5099 
   8   1.0000      -2.003203       -54.5099 
   9   1.0000      -0.256167        -6.9707 
  10   1.0000      -0.132589        -3.6079 
  11   1.0000      -0.132588        -3.6079 
  12   0.0000      -0.076460        -2.0806 
  13   0.0000      -0.056029        -1.5246 
  14   0.0000      -0.055516        -1.5107 
  15   0.0000      -0.012822        -0.3489 
  16   0.0000       0.004081         0.1111 
  17   0.0000       0.004081         0.1111 
  18   0.0000       0.022408         0.6098 
  19   0.0000       0.031882         0.8676 
  20   0.0000       0.051593         1.4039 
  21   0.0000       0.051593         1.4039 
  22   0.0000       0.091272         2.4836 
  23   0.0000       0.094356         2.5675 
  24   0.0000       0.094356         2.5675 
  25   0.0000       0.097146         2.6435 
  26   0.0000       0.097232         2.6458 
  27   0.0000       0.107938         2.9371 
  28   0.0000       0.144226         3.9246 
  29   0.0000       0.223851         6.0913 
  30   0.0000       0.229774         6.2525 
  31   0.0000       0.229774         6.2525 
  32   0.0000       0.246667         6.7121 
  33   0.0000       0.278519         7.5789 
  34   0.0000       0.278519         7.5789 
  35   0.0000       0.335360         9.1256 
  36   0.0000       0.335375         9.1260 
  37   0.0000       0.365968         9.9585 
  38   0.0000       0.372804        10.1445 
  39   0.0000       0.372805        10.1445 
  40   0.0000       0.558683        15.2025 
  41   0.0000       0.586494        15.9593 
  42   0.0000       0.746597        20.3159 
  43   0.0000       0.750819        20.4308 
  44   0.0000       0.751034        20.4367 
  45   0.0000       0.824044        22.4234 
  46   0.0000       0.824044        22.4234 
  47   0.0000       0.913043        24.8452 
  48   0.0000       0.913043        24.8452 
  49   0.0000       0.922569        25.1044 
  50   0.0000       0.922569        25.1044 
  51   0.0000       0.943182        25.6653 
  52   0.0000       1.020335        27.7647 
  53   0.0000       1.020335        27.7647 
  54   0.0000       1.056088        28.7376 
  55   0.0000       1.090144        29.6643 
  56   0.0000       1.090314        29.6690 
  57   0.0000       1.109845        30.2004 
  58   0.0000       1.109845        30.2004 
  59   0.0000       1.233047        33.5529 
  60   0.0000       1.233234        33.5580 
  61   0.0000       1.410861        38.3915 
  62   0.0000       1.523482        41.4561 
  63   0.0000       1.739337        47.3298 
  64   0.0000       1.739338        47.3298 
  65   0.0000       2.220276        60.4168 
  66   0.0000       2.766771        75.2877 
  67   0.0000       2.766771        75.2877 
  68   0.0000       2.796959        76.1091 
  69   0.0000       2.797028        76.1110 
  70   0.0000       2.799234        76.1710 
  71   0.0000       2.799234        76.1710 
  72   0.0000       2.836214        77.1773 
  73   0.0000       3.010551        81.9212 
  74   0.0000       3.072199        83.5988 
  75   0.0000       3.133147        85.2573 
  76   0.0000       3.133147        85.2573 
  77   0.0000       3.402991        92.6001 
  78   0.0000       3.403145        92.6043 
  79   0.0000       3.408987        92.7633 
  80   0.0000       3.432142        93.3933 
  81   0.0000       3.432142        93.3933 
  82   0.0000       3.438928        93.5780 
  83   0.0000       3.438928        93.5780 
  84   0.0000       3.445097        93.7459 
  85   0.0000       3.445449        93.7554 
  86   0.0000       3.667454        99.7965 
  87   0.0000       3.892731       105.9266 
  88   0.0000       3.893909       105.9587 
  89   0.0000       4.107080       111.7593 
  90   0.0000       4.107080       111.7593 
  91   0.0000       4.582653       124.7003 
  92   0.0000       4.582653       124.7003 
  93   0.0000       4.648958       126.5046 
  94   0.0000       4.649194       126.5110 
  95   0.0000       4.907396       133.5370 
  96   0.0000       4.968575       135.2018 
  97   0.0000       4.968577       135.2018 
  98   0.0000       5.324856       144.8967 
  99   0.0000       6.008037       163.4870 
 100   0.0000       9.111254       247.9298 
 101   0.0000       9.111821       247.9453 
 102   0.0000       9.129632       248.4299 
 103   0.0000       9.129632       248.4299 
 104   0.0000       9.219194       250.8670 
 105   0.0000       9.219194       250.8670 
 106   0.0000       9.546071       259.7618 
 107   0.0000       9.885928       269.0098 
 108   0.0000       9.885928       269.0098 
 109   0.0000       9.894093       269.2320 
 110   0.0000       9.899418       269.3769 
 111   0.0000       9.948882       270.7228 
 112   0.0000       9.950397       270.7641 
 113   0.0000      10.143267       276.0123 
 114   0.0000      10.143267       276.0123 
 115   0.0000      10.482780       285.2509 

                    ********************************
                    * MULLIKEN POPULATION ANALYSIS *
                    ********************************

--------------------------------------------
MULLIKEN ATOMIC CHARGES AND SPIN POPULATIONS
--------------------------------------------
   0 Fe:    0.060226    3.194420
   1 H :   -0.060226   -0.194420
Sum of atomic charges         :   -0.0000000
Sum of atomic spin populations:    3.0000000

-----------------------------------------------------
MULLIKEN REDUCED ORBITAL CHARGES AND SPIN POPULATIONS
-----------------------------------------------------
CHARGE
  0 Fes       :     6.909223  s :     6.909223
      pz      :     4.095241  p :    12.098966
      px      :     4.001863
      py      :     4.001863
      dz2     :     0.950358  d :     6.926890
      dxz     :     1.988405
      dyz     :     1.988405
      dx2y2   :     0.999864
      dxy     :     0.999857
      f0      :     0.004164  f :     0.004522
      f+1     :     0.000095
      f-1     :     0.000095
      f+2     :     0.000083
      f-2     :     0.000083
      f+3     :     0.000000
      f-3     :     0.000000
      g0      :     0.000082  g :     0.000174
      g+1     :     0.000015
      g-1     :     0.000015
      g+2     :     0.000030
      g-2     :     0.000031
      g+3     :     0.000000
      g-3     :     0.000000
      g+4     :     0.000000
      g-4     :     0.000000
  1 H s       :     1.046901  s :     1.046901
      pz      :    -0.007377  p :     0.010554
      px      :     0.008965
      py      :     0.008965
      dz2     :     0.001406  d :     0.002771
      dxz     :     0.000657
      dyz     :     0.000657
      dx2y2   :     0.000022
      dxy     :     0.000029

SPIN
  0 Fes       :     0.454475  s :     0.454475
      pz      :    -0.026512  p :    -0.023420
      px      :     0.001546
      py      :     0.001546
      dz2     :     0.750627  d :     2.763423
      dxz     :     0.006537
      dyz     :     0.006537
      dx2y2   :     0.999864
      dxy     :     0.999857
      f0      :    -0.000473  f :    -0.000248
      f+1     :     0.000029
      f-1     :     0.000029
      f+2     :     0.000083
      f-2     :     0.000083
      f+3     :    -0.000000
      f-3     :    -0.000000
      g0      :     0.000125  g :     0.000190
      g+1     :     0.000002
      g-1     :     0.000002
      g+2     :     0.000030
      g-2     :     0.000031
      g+3     :    -0.000000
      g-3     :    -0.000000
      g+4     :    -0.000000
      g-4     :    -0.000000
  1 H s       :    -0.182280  s :    -0.182280
      pz      :     0.002923  p :    -0.010458
      px      :    -0.006690
      py      :    -0.006690
      dz2     :     0.001115  d :    -0.001682
      dxz     :    -0.001424
      dyz     :    -0.001424
      dx2y2   :     0.000022
      dxy     :     0.000029


                     *******************************
                     * LOEWDIN POPULATION ANALYSIS *
                     *******************************

-------------------------------------------
LOEWDIN ATOMIC CHARGES AND SPIN POPULATIONS
-------------------------------------------
   0 Fe:    0.682706    3.025091
   1 H :   -0.682706   -0.025091

----------------------------------------------------
LOEWDIN REDUCED ORBITAL CHARGES AND SPIN POPULATIONS
----------------------------------------------------
CHARGE
  0 Fes       :     6.599265  s :     6.599265
      pz      :     4.059548  p :    11.978901
      px      :     3.959676
      py      :     3.959676
      dz2     :     0.949942  d :     6.715814
      dxz     :     1.889177
      dyz     :     1.889177
      dx2y2   :     0.993761
      dxy     :     0.993758
      f0      :     0.016365  f :     0.021894
      f+1     :     0.002449
      f-1     :     0.002449
      f+2     :     0.000315
      f-2     :     0.000315
      f+3     :     0.000000
      f-3     :     0.000000
      g0      :     0.000849  g :     0.001421
      g+1     :     0.000235
      g-1     :     0.000235
      g+2     :     0.000051
      g-2     :     0.000051
      g+3     :     0.000000
      g-3     :     0.000000
      g+4     :     0.000000
      g-4     :     0.000000
  1 H s       :     1.038867  s :     1.038867
      pz      :     0.200565  p :     0.347034
      px      :     0.073234
      py      :     0.073234
      dz2     :     0.134599  d :     0.296805
      dxz     :     0.075229
      dyz     :     0.075229
      dx2y2   :     0.005872
      dxy     :     0.005876

SPIN
  0 Fes       :     0.368257  s :     0.368257
      pz      :    -0.058116  p :    -0.050498
      px      :     0.003809
      py      :     0.003809
      dz2     :     0.709246  d :     2.709509
      dxz     :     0.006372
      dyz     :     0.006372
      dx2y2   :     0.993761
      dxy     :     0.993758
      f0      :    -0.003340  f :    -0.002394
      f+1     :     0.000158
      f-1     :     0.000158
      f+2     :     0.000315
      f-2     :     0.000315
      f+3     :    -0.000000
      f-3     :    -0.000000
      g0      :    -0.000077  g :     0.000217
      g+1     :     0.000096
      g-1     :     0.000096
      g+2     :     0.000051
      g-2     :     0.000051
      g+3     :    -0.000000
      g-3     :    -0.000000
      g+4     :    -0.000000
      g-4     :    -0.000000
  1 H s       :    -0.053809  s :    -0.053809
      pz      :     0.035568  p :     0.017884
      px      :    -0.008842
      py      :    -0.008842
      dz2     :     0.002271  d :     0.010834
      dxz     :    -0.001593
      dyz     :    -0.001593
      dx2y2   :     0.005872
      dxy     :     0.005876


                      *****************************
                      * MAYER POPULATION ANALYSIS *
                      *****************************

  NA   - Mulliken gross atomic population
  ZA   - Total nuclear charge
  QA   - Mulliken gross atomic charge
  VA   - Mayer's total valence
  BVA  - Mayer's bonded valence
  FA   - Mayer's free valence

  ATOM       NA         ZA         QA         VA         BVA        FA
  0 Fe    25.9398    26.0000     0.0602     4.0385     1.0215     3.0171
  1 H      1.0602     1.0000    -0.0602     1.0595     1.0215     0.0380

  Mayer bond orders larger than 0.100000
B(  0-Fe,  1-H ) :   1.0215 

-------
TIMINGS
-------

Total SCF time: 0 days 0 hours 0 min 3 sec 

Total time                  ....       3.418 sec
Sum of individual times     ....       3.294 sec  ( 96.4%)

Fock matrix formation       ....       2.971 sec  ( 86.9%)
  Split-RI-J                ....       2.113 sec  ( 71.1% of F)
  XC integration            ....       0.798 sec  ( 26.9% of F)
    Basis function eval.    ....       0.096 sec  ( 12.0% of XC)
    Density eval.           ....       0.081 sec  ( 10.1% of XC)
    XC-Functional eval.     ....       0.019 sec  (  2.4% of XC)
    XC-Potential eval.      ....       0.245 sec  ( 30.6% of XC)
Diagonalization             ....       0.063 sec  (  1.8%)
Density matrix formation    ....       0.010 sec  (  0.3%)
Population analysis         ....       0.006 sec  (  0.2%)
Initial guess               ....       0.103 sec  (  3.0%)
Orbital Transformation      ....       0.000 sec  (  0.0%)
Orbital Orthonormalization  ....       0.000 sec  (  0.0%)
DIIS solution               ....       0.022 sec  (  0.6%)
Grid generation             ....       0.120 sec  (  3.5%)


-------------------------------------------------------------------------------
                          DFT DISPERSION CORRECTION                            
                                                                               
                              DFTD3 V3.1  Rev 1                                
                          USING Becke-Johnson damping                          
-------------------------------------------------------------------------------
The SCAN functional is recognized
Active option DFTDOPT                   ...         4   

molecular C6(AA) [au] = 297.697841 


            DFT-D V3
 parameters
 s6 scaling factor         :     1.0000 
 a1 scaling factor         :     0.5380 
 s8 scaling factor         :     0.0000 
 a2 scaling factor         :     5.4200 
 ad hoc parameters k1-k3   :    16.0000     1.3333    -4.0000 

 Edisp/kcal,au: -0.042733500646  -0.000068100161 
 E6   /kcal   :  -0.042733501 
 E8   /kcal   :  -0.000000000 
 % E8         :   0.000000000 

-------------------------   ----------------
Dispersion correction           -0.000068100
-------------------------   ----------------


-------------------------   --------------------
FINAL SINGLE POINT ENERGY     -1264.350558735912
-------------------------   --------------------


                            ***************************************
                            *     ORCA property calculations      *
                            ***************************************

                                    ---------------------
                                    Active property flags
                                    ---------------------
   (+) Dipole Moment


------------------------------------------------------------------------------
                       ORCA ELECTRIC PROPERTIES CALCULATION
------------------------------------------------------------------------------

Dipole Moment Calculation                       ... on
Quadrupole Moment Calculation                   ... off
Polarizability Calculation                      ... off
GBWName                                         ... 31_FeH.gbw
Electron density file                           ... 31_FeH.scfp
The origin for moment calculation is the CENTER OF MASS  = ( 0.000000,  0.000000  0.483291)

-------------
DIPOLE MOMENT
-------------
                                X             Y             Z
Electronic contribution:     -0.00000      -0.00000      -2.52433
Nuclear contribution   :      0.00000       0.00000       1.52035
                        -----------------------------------------
Total Dipole Moment    :     -0.00000      -0.00000      -1.00398
                        -----------------------------------------
Magnitude (a.u.)       :      1.00398
Magnitude (Debye)      :      2.55192



--------------------
Rotational spectrum 
--------------------
 
Rotational constants in cm-1:     0.000000     7.149016     7.149016 
Rotational constants in MHz :     0.000000 214322.097628 214322.097628 

 Dipole components along the rotational axes: 
x,y,z [a.u.] :    -1.003983    -0.000001    -0.000001 
x,y,z [Debye]:    -2.551923    -0.000001    -0.000003 

 

Timings for individual modules:

Sum of individual times         ...        6.296 sec (=   0.105 min)
GTO integral calculation        ...        2.537 sec (=   0.042 min)  40.3 %
SCF iterations                  ...        3.759 sec (=   0.063 min)  59.7 %
                             ****ORCA TERMINATED NORMALLY****
TOTAL RUN TIME: 0 days 0 hours 0 minutes 6 seconds 873 msec
