
                                 *****************
                                 * O   R   C   A *
                                 *****************

           --- An Ab Initio, DFT and Semiempirical electronic structure package ---

                  #######################################################
                  #                        -***-                        #
                  #          Department of theory and spectroscopy      #
                  #               Directorship: Frank Neese             #
                  #        Max Planck Institute fuer Kohlenforschung    #
                  #                Kaiser Wilhelm Platz 1               #
                  #                 D-45470 Muelheim/Ruhr               #
                  #                      Germany                        #
                  #                                                     #
                  #                  All rights reserved                #
                  #                        -***-                        #
                  #######################################################


                         Program Version 4.2.0 -  RELEASE  -


 With contributions from (in alphabetic order):
   Daniel Aravena         : Magnetic Suceptibility
   Michael Atanasov       : Ab Initio Ligand Field Theory (pilot matlab implementation)
   Alexander A. Auer      : GIAO ZORA, VPT2
   Ute Becker             : Parallelization
   Giovanni Bistoni       : ED, misc. LED, open-shell LED, HFLED
   Martin Brehm           : Molecular dynamics
   Dmytro Bykov           : SCF Hessian
   Vijay G. Chilkuri      : MRCI spin determinant printing, contributions to CSF-ICE
   Dipayan Datta          : RHF DLPNO-CCSD density
   Achintya Kumar Dutta   : EOM-CC, STEOM-CC
   Dmitry Ganyushin       : Spin-Orbit,Spin-Spin,Magnetic field MRCI
   Miquel Garcia          : C-PCM Hessian, Gaussian charge scheme
   Yang Guo               : DLPNO-NEVPT2, CIM, IAO-localization
   Andreas Hansen         : Spin unrestricted coupled pair/coupled cluster methods
   Benjamin Helmich-Paris : CASSCF linear response (MC-RPA)
   Lee Huntington         : MR-EOM, pCC
   Robert Izsak           : Overlap fitted RIJCOSX, COSX-SCS-MP3, EOM
   Christian Kollmar      : KDIIS, OOCD, Brueckner-CCSD(T), CCSD density
   Simone Kossmann        : Meta GGA functionals, TD-DFT gradient, OOMP2, MP2 Hessian
   Martin Krupicka        : AUTO-CI
   Lucas Lang             : DCDCAS
   Dagmar Lenk            : GEPOL surface, SMD
   Dimitrios Liakos       : Extrapolation schemes; Compound Job, initial MDCI parallelization
   Dimitrios Manganas     : Further ROCIS development; embedding schemes
   Dimitrios Pantazis     : SARC Basis sets
   Taras Petrenko         : DFT Hessian,TD-DFT gradient, ASA, ECA, R-Raman, ABS, FL, XAS/XES, NRVS
   Peter Pinski           : DLPNO-MP2, DLPNO-MP2 Gradient
   Christoph Reimann      : Effective Core Potentials
   Marius Retegan         : Local ZFS, SOC
   Christoph Riplinger    : Optimizer, TS searches, QM/MM, DLPNO-CCSD(T), (RO)-DLPNO pert. Triples
   Tobias Risthaus        : Range-separated hybrids, TD-DFT gradient, RPA, STAB
   Michael Roemelt        : Original ROCIS implementation
   Masaaki Saitow         : Open-shell DLPNO-CCSD energy and density
   Barbara Sandhoefer     : DKH picture change effects
   Avijit Sen             : IP-ROCIS
   Kantharuban Sivalingam : CASSCF convergence, NEVPT2, FIC-MRCI
   Bernardo de Souza      : ESD, SOC TD-DFT
   Georgi Stoychev        : AutoAux, RI-MP2 NMR
   Willem Van den Heuvel  : Paramagnetic NMR
   Boris Wezisla          : Elementary symmetry handling
   Frank Wennmohs         : Technical directorship


 We gratefully acknowledge several colleagues who have allowed us to
 interface, adapt or use parts of their codes:
   Stefan Grimme, W. Hujo, H. Kruse,             : VdW corrections, initial TS optimization,
                  C. Bannwarth                     DFT functionals, gCP, sTDA/sTD-DF
   Ed Valeev, F. Pavosevic, A. Kumar             : LibInt (2-el integral package), F12 methods
   Garnet Chan, S. Sharma, J. Yang, R. Olivares  : DMRG
   Ulf Ekstrom                                   : XCFun DFT Library
   Mihaly Kallay                                 : mrcc  (arbitrary order and MRCC methods)
   Andreas Klamt, Michael Diedenhofen            : otool_cosmo (COSMO solvation model)
   Jiri Pittner, Ondrej Demel                    : Mk-CCSD
   Frank Weinhold                                : gennbo (NPA and NBO analysis)
   Christopher J. Cramer and Donald G. Truhlar   : smd solvation model
   Lars Goerigk                                  : TD-DFT with DH, B97 family of functionals
   V. Asgeirsson, H. Jonsson                     : NEB implementation
   FAccTs GmbH                                   : IRC, NEB, NEB-TS, Multilevel, MM, QM/MM, CI optimization
   S Lehtola, MJT Oliveira, MAL Marques          : LibXC Library


 Your calculation uses the libint2 library for the computation of 2-el integrals
 For citations please refer to: http://libint.valeyev.net

 Your ORCA version has been built with support for libXC version: 4.2.3
 For citations please refer to: https://tddft.org/programs/libxc/

 This ORCA versions uses:
   CBLAS   interface :  Fast vector & matrix operations
   LAPACKE interface :  Fast linear algebra routines
   SCALAPACK package :  Parallel linear algebra routines


Your calculation utilizes the atom-pairwise dispersion correction
with the Becke-Johnson damping scheme (D3BJ)
Cite in your paper:
S.Grimme, S.Ehrlich, L.Goerigk, J Comput Chem, (2011), 32, 1456–1465 
S.Grimme, J.Antony, S.Ehrlich and H.Krieg, J.Chem.Phys., 132, (2010), 154104 
   

----- Orbital basis set information -----
Your calculation utilizes the basis: aug-cc-pVTZ 
    H, B-Ne : Obtained from the ccRepo (grant-hill.group.shef.ac.uk/ccrepo) Feb. 2017
              R. A. Kendall, T. H. Dunning, Jr., R. J. Harrison, J. Chem. Phys. 96, 6796 (1992)
         He : Obtained from the ccRepo (grant-hill.group.shef.ac.uk/ccrepo) Feb. 2017
              D. E. Woon, T. H. Dunning, Jr., J. Chem. Phys. 100, 2975 (1994)
  Li-Be, Na : Obtained from the ccRepo (grant-hill.group.shef.ac.uk/ccrepo) Feb. 2017
              B. P. Prascher, D. E. Woon, K. A. Peterson, T. H. Dunning, Jr., A. K. Wilson, Theor. Chem. Acc. 128, 69 (2011)
         Mg : Obtained from the Peterson Research Group Website (tyr0.chem.wsu.edu/~kipeters) Feb. 2017
              B. P. Prascher, D. E. Woon, K. A. Peterson, T. H. Dunning, Jr., A. K. Wilson, Theor. Chem. Acc. 128, 69 (2011)
      Al-Ar : Obtained from the ccRepo (grant-hill.group.shef.ac.uk/ccrepo) Feb. 2017
              D. E. Woon, T. H. Dunning, Jr., J. Chem. Phys. 98, 1358 (1993)
      Sc-Zn : Obtained from the ccRepo (grant-hill.group.shef.ac.uk/ccrepo) Feb. 2017
              N. B. Balabanov, K. A. Peterson, J. Chem. Phys. 123, 064107 (2005)
              N. B. Balabanov, K. A. Peterson, J. Chem. Phys. 125, 074110 (2006)
      Ga-Kr : Obtained from the ccRepo (grant-hill.group.shef.ac.uk/ccrepo) Feb. 2017
              A. K. Wilson, D. E. Woon, K. A. Peterson, T. H. Dunning, Jr., J. Chem. Phys. 110, 7667 (1999)
     Ag, Au : Obtained from the Peterson Research Group Website (tyr0.chem.wsu.edu/~kipeters) Feb. 2017
              K. A. Peterson, C. Puzzarini, Theor. Chem. Acc. 114, 283 (2005)

----- AuxJ basis set information -----
Your calculation utilizes the auxiliary basis: def2/J
   F. Weigend, Phys. Chem. Chem. Phys. 8, 1057 (2006).

================================================================================
                                        WARNINGS
                       Please study these warnings very carefully!
================================================================================


WARNING: your system is open-shell and RHF/RKS was chosen
  ===> : WILL SWITCH to UHF/UKS


WARNING: The SCAN functional is very grid-sensitive!
         Use at least GRID5 and a higher intacc

INFO   : the flag for use of LIBINT has been found!

================================================================================
                                       INPUT FILE
================================================================================
NAME = 37_CoH.in
|  1> #
|  2> # 37_CoH scanfunc/aug-cc-pvtz
|  3> #
|  4> ! scanfunc d3bj aug-cc-pvtz def2/j grid4 nofinalgrid
|  5> 
|  6> *xyz 0 3
|  7>   Co  0.00000000000000      0.00000000000000      0.23964953556340
|  8>   H   0.00000000000000      0.00000000000000      1.76035046443660
|  9> *
| 10> 
| 11> %pal
| 12> nprocs 24
| 13> end
| 14> 
| 15> 
| 16>                          ****END OF INPUT****
================================================================================

                       ****************************
                       * Single Point Calculation *
                       ****************************

---------------------------------
CARTESIAN COORDINATES (ANGSTROEM)
---------------------------------
  Co     0.000000    0.000000    0.239650
  H      0.000000    0.000000    1.760350

----------------------------
CARTESIAN COORDINATES (A.U.)
----------------------------
  NO LB      ZA    FRAG     MASS         X           Y           Z
   0 Co   27.0000    0    58.930    0.000000    0.000000    0.452872
   1 H     1.0000    0     1.008    0.000000    0.000000    3.326580

--------------------------------
INTERNAL COORDINATES (ANGSTROEM)
--------------------------------
 Co     0   0   0     0.000000000000     0.00000000     0.00000000
 H      1   0   0     1.520700928873     0.00000000     0.00000000

---------------------------
INTERNAL COORDINATES (A.U.)
---------------------------
 Co     0   0   0     0.000000000000     0.00000000     0.00000000
 H      1   0   0     2.873708287170     0.00000000     0.00000000

---------------------
BASIS SET INFORMATION
---------------------
There are 2 groups of distinct atoms

 Group   1 Type Co  : 116s77p23d3f2g contracted to 8s7p5d3f2g pattern {19191919191911/151515151511/77711/111/11}
 Group   2 Type H   : 6s3p2d contracted to 4s3p2d pattern {3111/111/11}

Atom   0Co   basis set group =>   1
Atom   1H    basis set group =>   2
---------------------------------
AUXILIARY/J BASIS SET INFORMATION
---------------------------------
There are 2 groups of distinct atoms

 Group   1 Type Co  : 19s5p5d3f3g contracted to 8s5p5d2f3g pattern {121111111/11111/11111/21/111}
 Group   2 Type H   : 5s2p1d contracted to 3s1p1d pattern {311/2/1}

Atom   0Co   basis set group =>   1
Atom   1H    basis set group =>   2


           ************************************************************
           *        Program running with 24 parallel MPI-processes    *
           *              working on a common directory               *
           ************************************************************
------------------------------------------------------------------------------
                           ORCA GTO INTEGRAL CALCULATION
                           -- RI-GTO INTEGRALS CHOSEN --
------------------------------------------------------------------------------

                         BASIS SET STATISTICS AND STARTUP INFO

Gaussian basis set:
 # of primitive gaussian shells          ...  232
 # of primitive gaussian functions       ...  526
 # of contracted shells                  ...   34
 # of contracted basis functions         ...  116
 Highest angular momentum                ...    4
 Maximum contraction depth               ...   19
Auxiliary gaussian basis set:
 # of primitive gaussian shells          ...   43
 # of primitive gaussian functions       ...  123
 # of contracted shells                  ...   28
 # of contracted aux-basis functions     ...  100
 Highest angular momentum                ...    4
 Maximum contraction depth               ...   12
Ratio of auxiliary to basis functions    ...  0.86
Integral package used                  ... LIBINT
 One Electron integrals                  ... done
 Ordering auxiliary basis shells         ... done
 Integral threshhold             Thresh  ...  1.000e-10
 Primitive cut-off               TCut    ...  1.000e-11
 Pre-screening matrix                    ... done
 Shell pair data                         ... 
 Ordering of the shell pairs             ... done (   0.000 sec) 595 of 595 pairs
 Determination of significant pairs      ... done (   0.000 sec)
 Creation of shell pair data             ... done (   0.001 sec)
 Storage of shell pair data              ... done (   0.001 sec)
 Shell pair data done in (   0.002 sec)
 Computing two index integrals           ... done
 Cholesky decomposition of the V-matrix  ... done


Timings:
 Total evaluation time                   ...   2.141 sec (  0.036 min)
 One electron matrix time                ...   0.043 sec (  0.001 min) =  2.0%
 Schwartz matrix evaluation time         ...   2.065 sec (  0.034 min) = 96.4%
 Two index repulsion integral time       ...   0.001 sec (  0.000 min) =  0.1%
 Cholesky decomposition of V             ...   0.001 sec (  0.000 min) =  0.0%
 Three index repulsion integral time     ...   0.000 sec (  0.000 min) =  0.0%



           ************************************************************
           *        Program running with 24 parallel MPI-processes    *
           *              working on a common directory               *
           ************************************************************
-------------------------------------------------------------------------------
                                 ORCA SCF
-------------------------------------------------------------------------------

------------
SCF SETTINGS
------------
Hamiltonian:
 Density Functional     Method          .... DFT(GTOs)
 Exchange Functional    Exchange        .... SCAN
 Correlation Functional Correlation     .... SCAN
 Gradients option       PostSCFGGA      .... off
   Density functional embedding theory  .... OFF
   NL short-range parameter             ....  6.400000
 RI-approximation to the Coulomb term is turned on
   Number of auxiliary basis functions  .... 100


General Settings:
 Integral files         IntName         .... 37_CoH
 Hartree-Fock type      HFTyp           .... UHF
 Total Charge           Charge          ....    0
 Multiplicity           Mult            ....    3
 Number of Electrons    NEL             ....   28
 Basis Dimension        Dim             ....  116
 Nuclear Repulsion      ENuc            ....      9.3955256769 Eh

Convergence Acceleration:
 DIIS                   CNVDIIS         .... on
   Start iteration      DIISMaxIt       ....    12
   Startup error        DIISStart       ....  0.200000
   # of expansion vecs  DIISMaxEq       ....     5
   Bias factor          DIISBfac        ....   1.050
   Max. coefficient     DIISMaxC        ....  10.000
 Newton-Raphson         CNVNR           .... off
 SOSCF                  CNVSOSCF        .... off
 Level Shifting         CNVShift        .... on
   Level shift para.    LevelShift      ....    0.2500
   Turn off err/grad.   ShiftErr        ....    0.0010
 Zerner damping         CNVZerner       .... off
 Static damping         CNVDamp         .... on
   Fraction old density DampFac         ....    0.7000
   Max. Damping (<1)    DampMax         ....    0.9800
   Min. Damping (>=0)   DampMin         ....    0.0000
   Turn off err/grad.   DampErr         ....    0.1000
 Fernandez-Rico         CNVRico         .... off

SCF Procedure:
 Maximum # iterations   MaxIter         ....   125
 SCF integral mode      SCFMode         .... Direct
   Integral package                     .... LIBINT
 Reset frequency        DirectResetFreq ....    20
 Integral Threshold     Thresh          ....  1.000e-10 Eh
 Primitive CutOff       TCut            ....  1.000e-11 Eh

Convergence Tolerance:
 Convergence Check Mode ConvCheckMode   .... Total+1el-Energy
 Convergence forced     ConvForced      .... 0
 Energy Change          TolE            ....  1.000e-06 Eh
 1-El. energy change                    ....  1.000e-03 Eh
 DIIS Error             TolErr          ....  1.000e-06


Diagonalization of the overlap matrix:
Smallest eigenvalue                        ... 6.306e-05
Time for diagonalization                   ...    0.004 sec
Threshold for overlap eigenvalues          ... 1.000e-08
Number of eigenvalues below threshold      ... 0
Time for construction of square roots      ...    0.002 sec
Total time needed                          ...    0.006 sec

-------------------
DFT GRID GENERATION
-------------------

General Integration Accuracy     IntAcc      ...  4.670
Radial Grid Type                 RadialGrid  ... Gauss-Chebyshev
Angular Grid (max. acc.)         AngularGrid ... Lebedev-302
Angular grid pruning method      GridPruning ... 3 (G Style)
Weight generation scheme         WeightScheme... Becke
Basis function cutoff            BFCut       ...    1.0000e-10
Integration weight cutoff        WCut        ...    1.0000e-14
Grids for H and He will be reduced by one unit

# of grid points (after initial pruning)     ...  13034 (   0.0 sec)
# of grid points (after weights+screening)   ...  12998 (   0.0 sec)
nearest neighbour list constructed           ...    0.0 sec
Grid point re-assignment to atoms done       ...    0.0 sec
Grid point division into batches done        ...    0.1 sec
Reduced shell lists constructed in    0.1 sec

Total number of grid points                  ...    12998
Total number of batches                      ...      205
Average number of points per batch           ...       63
Average number of grid points per atom       ...     6499
Average number of shells per batch           ...    14.60 (42.94%)
Average number of basis functions per batch  ...    32.60 (28.10%)
Average number of large shells per batch     ...     7.00 (47.95%)
Average number of large basis fcns per batch ...    15.80 (48.47%)
Maximum spatial batch extension              ...  31.41, 28.57, 18.66 au
Average spatial batch extension              ...   1.02,  0.93,  0.70 au

Time for grid setup =    0.124 sec

------------------------------
INITIAL GUESS: MODEL POTENTIAL
------------------------------
Loading Hartree-Fock densities                     ... done
Calculating cut-offs                               ... done
Setting up the integral package                    ... done
Initializing the effective Hamiltonian             ... done
Starting the Coulomb interaction                   ... done (   0.0 sec)
Reading the grid                                   ... done
Mapping shells                                     ... done
Starting the XC term evaluation                    ... done (   0.0 sec)
  promolecular density results
     # of electrons  =     27.999537409
     EX              =    -65.781238018
     EC              =     -0.496696147
     EX+EC           =    -66.277934165
Transforming the Hamiltonian                       ... done (   0.0 sec)
Diagonalizing the Hamiltonian                      ... done (   0.0 sec)
Back transforming the eigenvectors                 ... done (   0.0 sec)
Now organizing SCF variables                       ... done
                      ------------------
                      INITIAL GUESS DONE (   0.2 sec)
                      ------------------
--------------
SCF ITERATIONS
--------------
ITER       Energy         Delta-E        Max-DP      RMS-DP      [F,P]     Damp
               ***  Starting incremental Fock matrix formation  ***
  0  -1382.5458367437   0.000000000000 8.60746367  0.08144516  1.0688499 0.7000
  1  -1382.1559242832   0.389912460531 2.58140940  0.02440956  0.3570264 0.7000
  2  -1382.7269047228  -0.570980439615 1.80772058  0.01725358  0.3238761 0.7000
  3  -1382.9431993772  -0.216294654363 1.26519654  0.01209912  0.3211492 0.7000
                               ***Turning on DIIS***
  4  -1383.1073751781  -0.164175800856 0.88564306  0.00843834  0.1585023 0.7000
  5  -1383.2125583164  -0.105183138391 2.06680394  0.01970044  0.0612584 0.0000
  6  -1383.4516494479  -0.239091131502 0.05438777  0.00084461  0.0448872 0.0000
  7  -1383.4597905337  -0.008141085796 0.02210871  0.00041815  0.0464347 0.0000
  8  -1383.4625590554  -0.002768521666 0.02141104  0.00032518  0.0209618 0.0000
  9  -1383.4644541026  -0.001895047179 0.01212606  0.00015693  0.0071668 0.0000
 10  -1383.4650391387  -0.000585036099 0.00733504  0.00010837  0.0037959 0.0000
 11  -1383.4652750740  -0.000235935351 0.00447932  0.00006567  0.0027423 0.0000
 12  -1383.4653738697  -0.000098795618 0.00260217  0.00004358  0.0015103 0.0000
 13  -1383.4654149101  -0.000041040471 0.00366727  0.00006835  0.0008445 0.0000
 14  -1383.4654439295  -0.000029019421 0.00038112  0.00000760  0.0009048 0.0000
 15  -1383.4654466301  -0.000002700528 0.00097867  0.00001218  0.0002479 0.0000
 16  -1383.4654490057  -0.000002375642 0.00072666  0.00000860  0.0002158 0.0000
 17  -1383.4654505895  -0.000001583781 0.00014485  0.00000222  0.0000617 0.0000
 18  -1383.4654509307  -0.000000341238 0.00020896  0.00000262  0.0001389 0.0000
                 **** Energy Check signals convergence ****

               *****************************************************
               *                     SUCCESS                       *
               *           SCF CONVERGED AFTER  19 CYCLES          *
               *****************************************************


----------------
TOTAL SCF ENERGY
----------------

Total Energy       :        -1383.46545147 Eh          -37646.00882 eV

Components:
Nuclear Repulsion  :            9.39552568 Eh             255.66525 eV
Electronic Energy  :        -1392.86097715 Eh          -37901.67407 eV
One Electron Energy:        -1937.42637494 Eh          -52720.05190 eV
Two Electron Energy:          544.56539779 Eh           14818.37783 eV

Virial components:
Potential Energy   :        -2765.61935555 Eh          -75256.32862 eV
Kinetic Energy     :         1382.15390408 Eh           37610.31980 eV
Virial Ratio       :            2.00094892


DFT components:
N(Alpha)           :       15.000007400632 electrons
N(Beta)            :       13.000007737041 electrons
N(Total)           :       28.000015137673 electrons
E(X)               :      -58.639461845053 Eh       
E(C)               :       -1.251255331511 Eh       
E(XC)              :      -59.890717176564 Eh       
DFET-embed. en.    :        0.000000000000 Eh       

---------------
SCF CONVERGENCE
---------------

  Last Energy change         ...   -5.4032e-07  Tolerance :   1.0000e-06
  Last MAX-Density change    ...    2.8185e-05  Tolerance :   1.0000e-05
  Last RMS-Density change    ...    5.5972e-07  Tolerance :   1.0000e-06
  Last DIIS Error            ...    9.9714e-06  Tolerance :   1.0000e-06

             **** THE GBW FILE WAS UPDATED (37_CoH.gbw) ****
             **** DENSITY FILE WAS UPDATED (37_CoH.scfp) ****
             **** ENERGY FILE WAS UPDATED (37_CoH.en.tmp) ****
----------------------
UHF SPIN CONTAMINATION
----------------------

Warning: in a DFT calculation there is little theoretical justification to 
         calculate <S**2> as in Hartree-Fock theory. We will do it anyways
         but you should keep in mind that the values have only limited relevance

Expectation value of <S**2>     :     2.035012
Ideal value S*(S+1) for S=1.0   :     2.000000
Deviation                       :     0.035012

             **** THE GBW FILE WAS UPDATED (37_CoH.gbw) ****
             **** DENSITY FILE WAS UPDATED (37_CoH.scfp) ****
----------------
ORBITAL ENERGIES
----------------
                 SPIN UP ORBITALS
  NO   OCC          E(Eh)            E(eV) 
   0   1.0000    -277.006175     -7537.7212 
   1   1.0000     -32.532950      -885.2666 
   2   1.0000     -28.199773      -767.3548 
   3   1.0000     -28.199772      -767.3548 
   4   1.0000     -28.199526      -767.3481 
   5   1.0000      -3.661779       -99.6421 
   6   1.0000      -2.339150       -63.6515 
   7   1.0000      -2.332563       -63.4723 
   8   1.0000      -2.332559       -63.4722 
   9   1.0000      -0.278314        -7.5733 
  10   1.0000      -0.227433        -6.1888 
  11   1.0000      -0.202279        -5.5043 
  12   1.0000      -0.184071        -5.0088 
  13   1.0000      -0.184070        -5.0088 
  14   1.0000      -0.166849        -4.5402 
  15   0.0000      -0.091223        -2.4823 
  16   0.0000      -0.027503        -0.7484 
  17   0.0000      -0.027502        -0.7484 
  18   0.0000       0.018948         0.5156 
  19   0.0000       0.028266         0.7692 
  20   0.0000       0.042631         1.1600 
  21   0.0000       0.042631         1.1600 
  22   0.0000       0.084292         2.2937 
  23   0.0000       0.092194         2.5087 
  24   0.0000       0.092546         2.5183 
  25   0.0000       0.092547         2.5183 
  26   0.0000       0.094842         2.5808 
  27   0.0000       0.099828         2.7165 
  28   0.0000       0.145644         3.9632 
  29   0.0000       0.210114         5.7175 
  30   0.0000       0.219526         5.9736 
  31   0.0000       0.219526         5.9736 
  32   0.0000       0.241433         6.5697 
  33   0.0000       0.286579         7.7982 
  34   0.0000       0.286579         7.7982 
  35   0.0000       0.325015         8.8441 
  36   0.0000       0.328883         8.9494 
  37   0.0000       0.365207         9.9378 
  38   0.0000       0.373826        10.1723 
  39   0.0000       0.373828        10.1724 
  40   0.0000       0.565647        15.3920 
  41   0.0000       0.605564        16.4782 
  42   0.0000       0.737636        20.0721 
  43   0.0000       0.779493        21.2111 
  44   0.0000       0.780994        21.2519 
  45   0.0000       0.843922        22.9643 
  46   0.0000       0.843923        22.9643 
  47   0.0000       0.951891        25.9023 
  48   0.0000       0.951892        25.9023 
  49   0.0000       0.970873        26.4188 
  50   0.0000       1.030931        28.0531 
  51   0.0000       1.030934        28.0531 
  52   0.0000       1.053685        28.6722 
  53   0.0000       1.053687        28.6723 
  54   0.0000       1.120789        30.4982 
  55   0.0000       1.206194        32.8222 
  56   0.0000       1.206513        32.8309 
  57   0.0000       1.233451        33.5639 
  58   0.0000       1.233451        33.5639 
  59   0.0000       1.291555        35.1450 
  60   0.0000       1.305035        35.5118 
  61   0.0000       1.496998        40.7354 
  62   0.0000       1.538113        41.8542 
  63   0.0000       1.834975        49.9322 
  64   0.0000       1.834977        49.9323 
  65   0.0000       2.304529        62.7094 
  66   0.0000       3.061290        83.3019 
  67   0.0000       3.162622        86.0593 
  68   0.0000       3.162622        86.0593 
  69   0.0000       3.196133        86.9712 
  70   0.0000       3.196134        86.9712 
  71   0.0000       3.196285        86.9753 
  72   0.0000       3.246176        88.3329 
  73   0.0000       3.264036        88.8189 
  74   0.0000       3.284199        89.3676 
  75   0.0000       3.447294        93.8056 
  76   0.0000       3.447294        93.8056 
  77   0.0000       3.730250       101.5053 
  78   0.0000       3.733030       101.5809 
  79   0.0000       3.748629       102.0054 
  80   0.0000       3.760847       102.3379 
  81   0.0000       3.760848       102.3379 
  82   0.0000       3.969803       108.0238 
  83   0.0000       4.091172       111.3264 
  84   0.0000       4.091834       111.3445 
  85   0.0000       4.102363       111.6310 
  86   0.0000       4.102363       111.6310 
  87   0.0000       4.165384       113.3459 
  88   0.0000       4.165384       113.3459 
  89   0.0000       4.249510       115.6351 
  90   0.0000       4.256772       115.8326 
  91   0.0000       4.913150       133.6936 
  92   0.0000       4.913150       133.6936 
  93   0.0000       5.073336       138.0525 
  94   0.0000       5.150458       140.1511 
  95   0.0000       5.200165       141.5037 
  96   0.0000       5.509521       149.9217 
  97   0.0000       5.530762       150.4997 
  98   0.0000       5.530763       150.4997 
  99   0.0000       6.846751       186.3096 
 100   0.0000      10.522433       286.3300 
 101   0.0000      10.522434       286.3300 
 102   0.0000      10.558864       287.3213 
 103   0.0000      10.590797       288.1902 
 104   0.0000      10.614214       288.8274 
 105   0.0000      10.614214       288.8274 
 106   0.0000      10.824216       294.5419 
 107   0.0000      11.705929       318.5345 
 108   0.0000      11.709428       318.6297 
 109   0.0000      11.731081       319.2189 
 110   0.0000      11.731081       319.2189 
 111   0.0000      11.738341       319.4165 
 112   0.0000      11.766645       320.1867 
 113   0.0000      11.949919       325.1738 
 114   0.0000      11.949919       325.1738 
 115   0.0000      12.252895       333.4182 

                 SPIN DOWN ORBITALS
  NO   OCC          E(Eh)            E(eV) 
   0   1.0000    -277.002623     -7537.6246 
   1   1.0000     -32.489713      -884.0900 
   2   1.0000     -28.172225      -766.6052 
   3   1.0000     -28.167381      -766.4734 
   4   1.0000     -28.167380      -766.4734 
   5   1.0000      -3.556849       -96.7868 
   6   1.0000      -2.238103       -60.9019 
   7   1.0000      -2.236598       -60.8609 
   8   1.0000      -2.236596       -60.8609 
   9   1.0000      -0.265662        -7.2290 
  10   1.0000      -0.158193        -4.3047 
  11   1.0000      -0.158192        -4.3046 
  12   1.0000      -0.156281        -4.2526 
  13   0.0000      -0.089960        -2.4479 
  14   0.0000      -0.044787        -1.2187 
  15   0.0000      -0.039839        -1.0841 
  16   0.0000      -0.001653        -0.0450 
  17   0.0000      -0.001653        -0.0450 
  18   0.0000       0.021868         0.5951 
  19   0.0000       0.031153         0.8477 
  20   0.0000       0.052537         1.4296 
  21   0.0000       0.052537         1.4296 
  22   0.0000       0.092098         2.5061 
  23   0.0000       0.093105         2.5335 
  24   0.0000       0.095457         2.5975 
  25   0.0000       0.095457         2.5975 
  26   0.0000       0.096587         2.6283 
  27   0.0000       0.108400         2.9497 
  28   0.0000       0.148989         4.0542 
  29   0.0000       0.219566         5.9747 
  30   0.0000       0.225872         6.1463 
  31   0.0000       0.225872         6.1463 
  32   0.0000       0.250793         6.8244 
  33   0.0000       0.287264         7.8169 
  34   0.0000       0.287265         7.8169 
  35   0.0000       0.340104         9.2547 
  36   0.0000       0.358135         9.7454 
  37   0.0000       0.373360        10.1596 
  38   0.0000       0.383568        10.4374 
  39   0.0000       0.383569        10.4374 
  40   0.0000       0.579362        15.7652 
  41   0.0000       0.602447        16.3934 
  42   0.0000       0.743276        20.2256 
  43   0.0000       0.767953        20.8971 
  44   0.0000       0.773110        21.0374 
  45   0.0000       0.857355        23.3298 
  46   0.0000       0.857355        23.3298 
  47   0.0000       0.952051        25.9066 
  48   0.0000       0.952052        25.9066 
  49   0.0000       0.952286        25.9130 
  50   0.0000       1.045968        28.4622 
  51   0.0000       1.045970        28.4623 
  52   0.0000       1.064953        28.9788 
  53   0.0000       1.064954        28.9789 
  54   0.0000       1.152863        31.3710 
  55   0.0000       1.202555        32.7232 
  56   0.0000       1.226429        33.3728 
  57   0.0000       1.241658        33.7872 
  58   0.0000       1.241659        33.7873 
  59   0.0000       1.322526        35.9878 
  60   0.0000       1.367872        37.2217 
  61   0.0000       1.497766        40.7563 
  62   0.0000       1.543536        42.0018 
  63   0.0000       1.834803        49.9275 
  64   0.0000       1.834804        49.9276 
  65   0.0000       2.295912        62.4749 
  66   0.0000       3.042301        82.7852 
  67   0.0000       3.191001        86.8316 
  68   0.0000       3.191001        86.8316 
  69   0.0000       3.238266        88.1177 
  70   0.0000       3.258575        88.6703 
  71   0.0000       3.258575        88.6703 
  72   0.0000       3.265603        88.8616 
  73   0.0000       3.289888        89.5224 
  74   0.0000       3.295835        89.6842 
  75   0.0000       3.462086        94.2082 
  76   0.0000       3.462089        94.2082 
  77   0.0000       3.688659       100.3735 
  78   0.0000       3.689578       100.3985 
  79   0.0000       3.763808       102.4184 
  80   0.0000       3.763809       102.4184 
  81   0.0000       3.779865       102.8554 
  82   0.0000       3.982821       108.3781 
  83   0.0000       4.106320       111.7386 
  84   0.0000       4.106320       111.7386 
  85   0.0000       4.146424       112.8299 
  86   0.0000       4.146424       112.8299 
  87   0.0000       4.146741       112.8385 
  88   0.0000       4.158386       113.1554 
  89   0.0000       4.272407       116.2581 
  90   0.0000       4.273999       116.3014 
  91   0.0000       4.923104       133.9645 
  92   0.0000       4.923104       133.9645 
  93   0.0000       5.039417       137.1295 
  94   0.0000       5.182431       141.0211 
  95   0.0000       5.271494       143.4446 
  96   0.0000       5.525139       150.3467 
  97   0.0000       5.541057       150.7798 
  98   0.0000       5.541059       150.7799 
  99   0.0000       6.884949       187.3490 
 100   0.0000      10.598851       288.4094 
 101   0.0000      10.598852       288.4094 
 102   0.0000      10.599449       288.4257 
 103   0.0000      10.615357       288.8586 
 104   0.0000      10.683352       290.7088 
 105   0.0000      10.683353       290.7088 
 106   0.0000      10.946542       297.8705 
 107   0.0000      11.732729       319.2638 
 108   0.0000      11.740220       319.4676 
 109   0.0000      11.740221       319.4676 
 110   0.0000      11.752329       319.7971 
 111   0.0000      11.762672       320.0786 
 112   0.0000      11.762720       320.0799 
 113   0.0000      11.973673       325.8202 
 114   0.0000      11.973674       325.8202 
 115   0.0000      12.292703       334.5015 

                    ********************************
                    * MULLIKEN POPULATION ANALYSIS *
                    ********************************

--------------------------------------------
MULLIKEN ATOMIC CHARGES AND SPIN POPULATIONS
--------------------------------------------
   0 Co:    0.042821    2.138813
   1 H :   -0.042821   -0.138813
Sum of atomic charges         :   -0.0000000
Sum of atomic spin populations:    2.0000000

-----------------------------------------------------
MULLIKEN REDUCED ORBITAL CHARGES AND SPIN POPULATIONS
-----------------------------------------------------
CHARGE
  0 Cos       :     6.874721  s :     6.874721
      pz      :     4.104249  p :    12.108156
      px      :     4.001954
      py      :     4.001953
      dz2     :     0.992700  d :     7.970494
      dxz     :     1.989408
      dyz     :     1.989409
      dx2y2   :     1.999129
      dxy     :     0.999848
      f0      :     0.003218  f :     0.003636
      f+1     :     0.000026
      f-1     :     0.000026
      f+2     :     0.000142
      f-2     :     0.000070
      f+3     :     0.000077
      f-3     :     0.000077
      g0      :     0.000095  g :     0.000171
      g+1     :     0.000005
      g-1     :     0.000005
      g+2     :     0.000013
      g-2     :     0.000009
      g+3     :     0.000009
      g-3     :     0.000009
      g+4     :     0.000027
      g-4     :     0.000000
  1 H s       :     1.028871  s :     1.028871
      pz      :    -0.004632  p :     0.011043
      px      :     0.007837
      py      :     0.007837
      dz2     :     0.000751  d :     0.002908
      dxz     :     0.000685
      dyz     :     0.000685
      dx2y2   :     0.000716
      dxy     :     0.000073

SPIN
  0 Cos       :     0.395631  s :     0.395631
      pz      :    -0.023354  p :    -0.021037
      px      :     0.001159
      py      :     0.001158
      dz2     :     0.757740  d :     1.764489
      dxz     :     0.003139
      dyz     :     0.003139
      dx2y2   :     0.000624
      dxy     :     0.999848
      f0      :    -0.000326  f :    -0.000342
      f+1     :    -0.000012
      f-1     :    -0.000012
      f+2     :     0.000020
      f-2     :     0.000070
      f+3     :    -0.000041
      f-3     :    -0.000041
      g0      :     0.000098  g :     0.000071
      g+1     :    -0.000006
      g-1     :    -0.000006
      g+2     :    -0.000009
      g-2     :     0.000009
      g+3     :    -0.000005
      g-3     :    -0.000005
      g+4     :    -0.000005
      g-4     :     0.000000
  1 H s       :    -0.131188  s :    -0.131188
      pz      :     0.000548  p :    -0.006643
      px      :    -0.003595
      py      :    -0.003595
      dz2     :     0.000856  d :    -0.000982
      dxz     :    -0.000638
      dyz     :    -0.000638
      dx2y2   :    -0.000635
      dxy     :     0.000073


                     *******************************
                     * LOEWDIN POPULATION ANALYSIS *
                     *******************************

-------------------------------------------
LOEWDIN ATOMIC CHARGES AND SPIN POPULATIONS
-------------------------------------------
   0 Co:    0.604813    2.009854
   1 H :   -0.604813   -0.009854

----------------------------------------------------
LOEWDIN REDUCED ORBITAL CHARGES AND SPIN POPULATIONS
----------------------------------------------------
CHARGE
  0 Cos       :     6.586847  s :     6.586847
      pz      :     4.067624  p :    11.995998
      px      :     3.964187
      py      :     3.964187
      dz2     :     0.997481  d :     7.792870
      dxz     :     1.907048
      dyz     :     1.907048
      dx2y2   :     1.986724
      dxy     :     0.994570
      f0      :     0.013883  f :     0.018710
      f+1     :     0.001961
      f-1     :     0.001961
      f+2     :     0.000517
      f-2     :     0.000234
      f+3     :     0.000077
      f-3     :     0.000077
      g0      :     0.000493  g :     0.000761
      g+1     :     0.000097
      g-1     :     0.000097
      g+2     :     0.000013
      g-2     :     0.000017
      g+3     :     0.000009
      g-3     :     0.000009
      g+4     :     0.000027
      g-4     :     0.000000
  1 H s       :     1.021003  s :     1.021003
      pz      :     0.184970  p :     0.304509
      px      :     0.059770
      py      :     0.059770
      dz2     :     0.127672  d :     0.279301
      dxz     :     0.066851
      dyz     :     0.066852
      dx2y2   :     0.012746
      dxy     :     0.005180

SPIN
  0 Cos       :     0.329060  s :     0.329060
      pz      :    -0.046109  p :    -0.040716
      px      :     0.002697
      py      :     0.002696
      dz2     :     0.722541  d :     1.723531
      dxz     :     0.003439
      dyz     :     0.003439
      dx2y2   :    -0.000458
      dxy     :     0.994570
      f0      :    -0.002384  f :    -0.002087
      f+1     :     0.000041
      f-1     :     0.000041
      f+2     :     0.000063
      f-2     :     0.000234
      f+3     :    -0.000041
      f-3     :    -0.000041
      g0      :     0.000006  g :     0.000066
      g+1     :     0.000026
      g-1     :     0.000026
      g+2     :     0.000006
      g-2     :     0.000017
      g+3     :    -0.000005
      g-3     :    -0.000005
      g+4     :    -0.000005
      g-4     :     0.000000
  1 H s       :    -0.038373  s :    -0.038373
      pz      :     0.032122  p :     0.022253
      px      :    -0.004935
      py      :    -0.004934
      dz2     :     0.003142  d :     0.006266
      dxz     :    -0.001223
      dyz     :    -0.001223
      dx2y2   :     0.000390
      dxy     :     0.005180


                      *****************************
                      * MAYER POPULATION ANALYSIS *
                      *****************************

  NA   - Mulliken gross atomic population
  ZA   - Total nuclear charge
  QA   - Mulliken gross atomic charge
  VA   - Mayer's total valence
  BVA  - Mayer's bonded valence
  FA   - Mayer's free valence

  ATOM       NA         ZA         QA         VA         BVA        FA
  0 Co    26.9572    27.0000     0.0428     3.0425     1.0597     1.9828
  1 H      1.0428     1.0000    -0.0428     1.0817     1.0597     0.0220

  Mayer bond orders larger than 0.100000
B(  0-Co,  1-H ) :   1.0597 

-------
TIMINGS
-------

Total SCF time: 0 days 0 hours 0 min 3 sec 

Total time                  ....       3.338 sec
Sum of individual times     ....       3.212 sec  ( 96.2%)

Fock matrix formation       ....       2.892 sec  ( 86.6%)
  Split-RI-J                ....       2.142 sec  ( 74.1% of F)
  XC integration            ....       0.684 sec  ( 23.6% of F)
    Basis function eval.    ....       0.092 sec  ( 13.4% of XC)
    Density eval.           ....       0.079 sec  ( 11.5% of XC)
    XC-Functional eval.     ....       0.019 sec  (  2.8% of XC)
    XC-Potential eval.      ....       0.242 sec  ( 35.3% of XC)
Diagonalization             ....       0.065 sec  (  2.0%)
Density matrix formation    ....       0.010 sec  (  0.3%)
Population analysis         ....       0.006 sec  (  0.2%)
Initial guess               ....       0.092 sec  (  2.7%)
Orbital Transformation      ....       0.000 sec  (  0.0%)
Orbital Orthonormalization  ....       0.000 sec  (  0.0%)
DIIS solution               ....       0.024 sec  (  0.7%)
Grid generation             ....       0.124 sec  (  3.7%)


-------------------------------------------------------------------------------
                          DFT DISPERSION CORRECTION                            
                                                                               
                              DFTD3 V3.1  Rev 1                                
                          USING Becke-Johnson damping                          
-------------------------------------------------------------------------------
The SCAN functional is recognized
Active option DFTDOPT                   ...         4   

molecular C6(AA) [au] = 320.885859 


            DFT-D V3
 parameters
 s6 scaling factor         :     1.0000 
 a1 scaling factor         :     0.5380 
 s8 scaling factor         :     0.0000 
 a2 scaling factor         :     5.4200 
 ad hoc parameters k1-k3   :    16.0000     1.3333    -4.0000 

 Edisp/kcal,au: -0.045895719812  -0.000073139477 
 E6   /kcal   :  -0.045895720 
 E8   /kcal   :  -0.000000000 
 % E8         :   0.000000000 

-------------------------   ----------------
Dispersion correction           -0.000073139
-------------------------   ----------------


-------------------------   --------------------
FINAL SINGLE POINT ENERGY     -1383.465524610528
-------------------------   --------------------


                            ***************************************
                            *     ORCA property calculations      *
                            ***************************************

                                    ---------------------
                                    Active property flags
                                    ---------------------
   (+) Dipole Moment


------------------------------------------------------------------------------
                       ORCA ELECTRIC PROPERTIES CALCULATION
------------------------------------------------------------------------------

Dipole Moment Calculation                       ... on
Quadrupole Moment Calculation                   ... off
Polarizability Calculation                      ... off
GBWName                                         ... 37_CoH.gbw
Electron density file                           ... 37_CoH.scfp
The origin for moment calculation is the CENTER OF MASS  = ( 0.000000,  0.000000  0.501200)

-------------
DIPOLE MOMENT
-------------
                                X             Y             Z
Electronic contribution:      0.00000      -0.00000      -2.51571
Nuclear contribution   :      0.00000       0.00000       1.52052
                        -----------------------------------------
Total Dipole Moment    :      0.00000      -0.00000      -0.99519
                        -----------------------------------------
Magnitude (a.u.)       :      0.99519
Magnitude (Debye)      :      2.52957



--------------------
Rotational spectrum 
--------------------
 
Rotational constants in cm-1:     0.000000     7.355540     7.355540 
Rotational constants in MHz :     0.000000 220513.537195 220513.537195 

 Dipole components along the rotational axes: 
x,y,z [a.u.] :    -0.995190    -0.000000     0.000000 
x,y,z [Debye]:    -2.529571    -0.000000     0.000000 

 

Timings for individual modules:

Sum of individual times         ...        6.215 sec (=   0.104 min)
GTO integral calculation        ...        2.549 sec (=   0.042 min)  41.0 %
SCF iterations                  ...        3.665 sec (=   0.061 min)  59.0 %
                             ****ORCA TERMINATED NORMALLY****
TOTAL RUN TIME: 0 days 0 hours 0 minutes 6 seconds 796 msec
