
                                 *****************
                                 * O   R   C   A *
                                 *****************

           --- An Ab Initio, DFT and Semiempirical electronic structure package ---

                  #######################################################
                  #                        -***-                        #
                  #          Department of theory and spectroscopy      #
                  #               Directorship: Frank Neese             #
                  #        Max Planck Institute fuer Kohlenforschung    #
                  #                Kaiser Wilhelm Platz 1               #
                  #                 D-45470 Muelheim/Ruhr               #
                  #                      Germany                        #
                  #                                                     #
                  #                  All rights reserved                #
                  #                        -***-                        #
                  #######################################################


                         Program Version 4.2.0 -  RELEASE  -


 With contributions from (in alphabetic order):
   Daniel Aravena         : Magnetic Suceptibility
   Michael Atanasov       : Ab Initio Ligand Field Theory (pilot matlab implementation)
   Alexander A. Auer      : GIAO ZORA, VPT2
   Ute Becker             : Parallelization
   Giovanni Bistoni       : ED, misc. LED, open-shell LED, HFLED
   Martin Brehm           : Molecular dynamics
   Dmytro Bykov           : SCF Hessian
   Vijay G. Chilkuri      : MRCI spin determinant printing, contributions to CSF-ICE
   Dipayan Datta          : RHF DLPNO-CCSD density
   Achintya Kumar Dutta   : EOM-CC, STEOM-CC
   Dmitry Ganyushin       : Spin-Orbit,Spin-Spin,Magnetic field MRCI
   Miquel Garcia          : C-PCM Hessian, Gaussian charge scheme
   Yang Guo               : DLPNO-NEVPT2, CIM, IAO-localization
   Andreas Hansen         : Spin unrestricted coupled pair/coupled cluster methods
   Benjamin Helmich-Paris : CASSCF linear response (MC-RPA)
   Lee Huntington         : MR-EOM, pCC
   Robert Izsak           : Overlap fitted RIJCOSX, COSX-SCS-MP3, EOM
   Christian Kollmar      : KDIIS, OOCD, Brueckner-CCSD(T), CCSD density
   Simone Kossmann        : Meta GGA functionals, TD-DFT gradient, OOMP2, MP2 Hessian
   Martin Krupicka        : AUTO-CI
   Lucas Lang             : DCDCAS
   Dagmar Lenk            : GEPOL surface, SMD
   Dimitrios Liakos       : Extrapolation schemes; Compound Job, initial MDCI parallelization
   Dimitrios Manganas     : Further ROCIS development; embedding schemes
   Dimitrios Pantazis     : SARC Basis sets
   Taras Petrenko         : DFT Hessian,TD-DFT gradient, ASA, ECA, R-Raman, ABS, FL, XAS/XES, NRVS
   Peter Pinski           : DLPNO-MP2, DLPNO-MP2 Gradient
   Christoph Reimann      : Effective Core Potentials
   Marius Retegan         : Local ZFS, SOC
   Christoph Riplinger    : Optimizer, TS searches, QM/MM, DLPNO-CCSD(T), (RO)-DLPNO pert. Triples
   Tobias Risthaus        : Range-separated hybrids, TD-DFT gradient, RPA, STAB
   Michael Roemelt        : Original ROCIS implementation
   Masaaki Saitow         : Open-shell DLPNO-CCSD energy and density
   Barbara Sandhoefer     : DKH picture change effects
   Avijit Sen             : IP-ROCIS
   Kantharuban Sivalingam : CASSCF convergence, NEVPT2, FIC-MRCI
   Bernardo de Souza      : ESD, SOC TD-DFT
   Georgi Stoychev        : AutoAux, RI-MP2 NMR
   Willem Van den Heuvel  : Paramagnetic NMR
   Boris Wezisla          : Elementary symmetry handling
   Frank Wennmohs         : Technical directorship


 We gratefully acknowledge several colleagues who have allowed us to
 interface, adapt or use parts of their codes:
   Stefan Grimme, W. Hujo, H. Kruse,             : VdW corrections, initial TS optimization,
                  C. Bannwarth                     DFT functionals, gCP, sTDA/sTD-DF
   Ed Valeev, F. Pavosevic, A. Kumar             : LibInt (2-el integral package), F12 methods
   Garnet Chan, S. Sharma, J. Yang, R. Olivares  : DMRG
   Ulf Ekstrom                                   : XCFun DFT Library
   Mihaly Kallay                                 : mrcc  (arbitrary order and MRCC methods)
   Andreas Klamt, Michael Diedenhofen            : otool_cosmo (COSMO solvation model)
   Jiri Pittner, Ondrej Demel                    : Mk-CCSD
   Frank Weinhold                                : gennbo (NPA and NBO analysis)
   Christopher J. Cramer and Donald G. Truhlar   : smd solvation model
   Lars Goerigk                                  : TD-DFT with DH, B97 family of functionals
   V. Asgeirsson, H. Jonsson                     : NEB implementation
   FAccTs GmbH                                   : IRC, NEB, NEB-TS, Multilevel, MM, QM/MM, CI optimization
   S Lehtola, MJT Oliveira, MAL Marques          : LibXC Library


 Your calculation uses the libint2 library for the computation of 2-el integrals
 For citations please refer to: http://libint.valeyev.net

 Your ORCA version has been built with support for libXC version: 4.2.3
 For citations please refer to: https://tddft.org/programs/libxc/

 This ORCA versions uses:
   CBLAS   interface :  Fast vector & matrix operations
   LAPACKE interface :  Fast linear algebra routines
   SCALAPACK package :  Parallel linear algebra routines


Your calculation utilizes the atom-pairwise dispersion correction
with the Becke-Johnson damping scheme (D3BJ)
Cite in your paper:
S.Grimme, S.Ehrlich, L.Goerigk, J Comput Chem, (2011), 32, 1456–1465 
S.Grimme, J.Antony, S.Ehrlich and H.Krieg, J.Chem.Phys., 132, (2010), 154104 
   

----- Orbital basis set information -----
Your calculation utilizes the basis: aug-cc-pVTZ 
    H, B-Ne : Obtained from the ccRepo (grant-hill.group.shef.ac.uk/ccrepo) Feb. 2017
              R. A. Kendall, T. H. Dunning, Jr., R. J. Harrison, J. Chem. Phys. 96, 6796 (1992)
         He : Obtained from the ccRepo (grant-hill.group.shef.ac.uk/ccrepo) Feb. 2017
              D. E. Woon, T. H. Dunning, Jr., J. Chem. Phys. 100, 2975 (1994)
  Li-Be, Na : Obtained from the ccRepo (grant-hill.group.shef.ac.uk/ccrepo) Feb. 2017
              B. P. Prascher, D. E. Woon, K. A. Peterson, T. H. Dunning, Jr., A. K. Wilson, Theor. Chem. Acc. 128, 69 (2011)
         Mg : Obtained from the Peterson Research Group Website (tyr0.chem.wsu.edu/~kipeters) Feb. 2017
              B. P. Prascher, D. E. Woon, K. A. Peterson, T. H. Dunning, Jr., A. K. Wilson, Theor. Chem. Acc. 128, 69 (2011)
      Al-Ar : Obtained from the ccRepo (grant-hill.group.shef.ac.uk/ccrepo) Feb. 2017
              D. E. Woon, T. H. Dunning, Jr., J. Chem. Phys. 98, 1358 (1993)
      Sc-Zn : Obtained from the ccRepo (grant-hill.group.shef.ac.uk/ccrepo) Feb. 2017
              N. B. Balabanov, K. A. Peterson, J. Chem. Phys. 123, 064107 (2005)
              N. B. Balabanov, K. A. Peterson, J. Chem. Phys. 125, 074110 (2006)
      Ga-Kr : Obtained from the ccRepo (grant-hill.group.shef.ac.uk/ccrepo) Feb. 2017
              A. K. Wilson, D. E. Woon, K. A. Peterson, T. H. Dunning, Jr., J. Chem. Phys. 110, 7667 (1999)
     Ag, Au : Obtained from the Peterson Research Group Website (tyr0.chem.wsu.edu/~kipeters) Feb. 2017
              K. A. Peterson, C. Puzzarini, Theor. Chem. Acc. 114, 283 (2005)

----- AuxJ basis set information -----
Your calculation utilizes the auxiliary basis: def2/J
   F. Weigend, Phys. Chem. Chem. Phys. 8, 1057 (2006).

================================================================================
                                        WARNINGS
                       Please study these warnings very carefully!
================================================================================


WARNING: your system is open-shell and RHF/RKS was chosen
  ===> : WILL SWITCH to UHF/UKS


WARNING: The SCAN functional is very grid-sensitive!
         Use at least GRID5 and a higher intacc

INFO   : the flag for use of LIBINT has been found!

================================================================================
                                       INPUT FILE
================================================================================
NAME = 38_CoF.in
|  1> #
|  2> # 38_CoF scanfunc/aug-cc-pvtz
|  3> #
|  4> ! scanfunc d3bj aug-cc-pvtz def2/j grid4 nofinalgrid
|  5> 
|  6> *xyz 0 3
|  7>   Co  0.00000000000000      0.00000000000000      0.12338928235446
|  8>   F   0.00000000000000      0.00000000000000      1.87661071764554
|  9> *
| 10> 
| 11> %pal
| 12> nprocs 24
| 13> end
| 14> 
| 15> 
| 16>                          ****END OF INPUT****
================================================================================

                       ****************************
                       * Single Point Calculation *
                       ****************************

---------------------------------
CARTESIAN COORDINATES (ANGSTROEM)
---------------------------------
  Co     0.000000    0.000000    0.123389
  F      0.000000    0.000000    1.876611

----------------------------
CARTESIAN COORDINATES (A.U.)
----------------------------
  NO LB      ZA    FRAG     MASS         X           Y           Z
   0 Co   27.0000    0    58.930    0.000000    0.000000    0.233172
   1 F     9.0000    0    18.998    0.000000    0.000000    3.546280

--------------------------------
INTERNAL COORDINATES (ANGSTROEM)
--------------------------------
 Co     0   0   0     0.000000000000     0.00000000     0.00000000
 F      1   0   0     1.753221435291     0.00000000     0.00000000

---------------------------
INTERNAL COORDINATES (A.U.)
---------------------------
 Co     0   0   0     0.000000000000     0.00000000     0.00000000
 F      1   0   0     3.313108364820     0.00000000     0.00000000

---------------------
BASIS SET INFORMATION
---------------------
There are 2 groups of distinct atoms

 Group   1 Type Co  : 116s77p23d3f2g contracted to 8s7p5d3f2g pattern {19191919191911/151515151511/77711/111/11}
 Group   2 Type F   : 19s6p3d2f contracted to 5s4p3d2f pattern {88111/3111/111/11}

Atom   0Co   basis set group =>   1
Atom   1F    basis set group =>   2
---------------------------------
AUXILIARY/J BASIS SET INFORMATION
---------------------------------
There are 2 groups of distinct atoms

 Group   1 Type Co  : 19s5p5d3f3g contracted to 8s5p5d2f3g pattern {121111111/11111/11111/21/111}
 Group   2 Type F   : 12s5p4d2f1g contracted to 6s4p3d1f1g pattern {711111/2111/211/2/1}

Atom   0Co   basis set group =>   1
Atom   1F    basis set group =>   2


           ************************************************************
           *        Program running with 24 parallel MPI-processes    *
           *              working on a common directory               *
           ************************************************************
------------------------------------------------------------------------------
                           ORCA GTO INTEGRAL CALCULATION
                           -- RI-GTO INTEGRALS CHOSEN --
------------------------------------------------------------------------------

                         BASIS SET STATISTICS AND STARTUP INFO

Gaussian basis set:
 # of primitive gaussian shells          ...  251
 # of primitive gaussian functions       ...  567
 # of contracted shells                  ...   39
 # of contracted basis functions         ...  139
 Highest angular momentum                ...    4
 Maximum contraction depth               ...   19
Auxiliary gaussian basis set:
 # of primitive gaussian shells          ...   59
 # of primitive gaussian functions       ...  177
 # of contracted shells                  ...   38
 # of contracted aux-basis functions     ...  138
 Highest angular momentum                ...    4
 Maximum contraction depth               ...   12
Ratio of auxiliary to basis functions    ...  0.99
Integral package used                  ... LIBINT
 One Electron integrals                  ... done
 Ordering auxiliary basis shells         ... done
 Integral threshhold             Thresh  ...  1.000e-10
 Primitive cut-off               TCut    ...  1.000e-11
 Pre-screening matrix                    ... done
 Shell pair data                         ... 
 Ordering of the shell pairs             ... done (   0.000 sec) 780 of 780 pairs
 Determination of significant pairs      ... done (   0.000 sec)
 Creation of shell pair data             ... done (   0.001 sec)
 Storage of shell pair data              ... done (   0.002 sec)
 Shell pair data done in (   0.003 sec)
 Computing two index integrals           ... done
 Cholesky decomposition of the V-matrix  ... done


Timings:
 Total evaluation time                   ...   2.252 sec (  0.038 min)
 One electron matrix time                ...   0.044 sec (  0.001 min) =  2.0%
 Schwartz matrix evaluation time         ...   2.174 sec (  0.036 min) = 96.5%
 Two index repulsion integral time       ...   0.001 sec (  0.000 min) =  0.0%
 Cholesky decomposition of V             ...   0.001 sec (  0.000 min) =  0.0%
 Three index repulsion integral time     ...   0.000 sec (  0.000 min) =  0.0%



           ************************************************************
           *        Program running with 24 parallel MPI-processes    *
           *              working on a common directory               *
           ************************************************************
-------------------------------------------------------------------------------
                                 ORCA SCF
-------------------------------------------------------------------------------

------------
SCF SETTINGS
------------
Hamiltonian:
 Density Functional     Method          .... DFT(GTOs)
 Exchange Functional    Exchange        .... SCAN
 Correlation Functional Correlation     .... SCAN
 Gradients option       PostSCFGGA      .... off
   Density functional embedding theory  .... OFF
   NL short-range parameter             ....  6.400000
 RI-approximation to the Coulomb term is turned on
   Number of auxiliary basis functions  .... 138


General Settings:
 Integral files         IntName         .... 38_CoF
 Hartree-Fock type      HFTyp           .... UHF
 Total Charge           Charge          ....    0
 Multiplicity           Mult            ....    3
 Number of Electrons    NEL             ....   36
 Basis Dimension        Dim             ....  139
 Nuclear Repulsion      ENuc            ....     73.3450202173 Eh

Convergence Acceleration:
 DIIS                   CNVDIIS         .... on
   Start iteration      DIISMaxIt       ....    12
   Startup error        DIISStart       ....  0.200000
   # of expansion vecs  DIISMaxEq       ....     5
   Bias factor          DIISBfac        ....   1.050
   Max. coefficient     DIISMaxC        ....  10.000
 Newton-Raphson         CNVNR           .... off
 SOSCF                  CNVSOSCF        .... off
 Level Shifting         CNVShift        .... on
   Level shift para.    LevelShift      ....    0.2500
   Turn off err/grad.   ShiftErr        ....    0.0010
 Zerner damping         CNVZerner       .... off
 Static damping         CNVDamp         .... on
   Fraction old density DampFac         ....    0.7000
   Max. Damping (<1)    DampMax         ....    0.9800
   Min. Damping (>=0)   DampMin         ....    0.0000
   Turn off err/grad.   DampErr         ....    0.1000
 Fernandez-Rico         CNVRico         .... off

SCF Procedure:
 Maximum # iterations   MaxIter         ....   125
 SCF integral mode      SCFMode         .... Direct
   Integral package                     .... LIBINT
 Reset frequency        DirectResetFreq ....    20
 Integral Threshold     Thresh          ....  1.000e-10 Eh
 Primitive CutOff       TCut            ....  1.000e-11 Eh

Convergence Tolerance:
 Convergence Check Mode ConvCheckMode   .... Total+1el-Energy
 Convergence forced     ConvForced      .... 0
 Energy Change          TolE            ....  1.000e-06 Eh
 1-El. energy change                    ....  1.000e-03 Eh
 DIIS Error             TolErr          ....  1.000e-06


Diagonalization of the overlap matrix:
Smallest eigenvalue                        ... 1.026e-04
Time for diagonalization                   ...    0.005 sec
Threshold for overlap eigenvalues          ... 1.000e-08
Number of eigenvalues below threshold      ... 0
Time for construction of square roots      ...    0.002 sec
Total time needed                          ...    0.008 sec

-------------------
DFT GRID GENERATION
-------------------

General Integration Accuracy     IntAcc      ...  4.670
Radial Grid Type                 RadialGrid  ... Gauss-Chebyshev
Angular Grid (max. acc.)         AngularGrid ... Lebedev-302
Angular grid pruning method      GridPruning ... 3 (G Style)
Weight generation scheme         WeightScheme... Becke
Basis function cutoff            BFCut       ...    1.0000e-10
Integration weight cutoff        WCut        ...    1.0000e-14
Grids for H and He will be reduced by one unit

# of grid points (after initial pruning)     ...  15912 (   0.0 sec)
# of grid points (after weights+screening)   ...  15863 (   0.0 sec)
nearest neighbour list constructed           ...    0.0 sec
Grid point re-assignment to atoms done       ...    0.0 sec
Grid point division into batches done        ...    0.1 sec
Reduced shell lists constructed in    0.1 sec

Total number of grid points                  ...    15863
Total number of batches                      ...      249
Average number of points per batch           ...       63
Average number of grid points per atom       ...     7932
Average number of shells per batch           ...    13.92 (35.68%)
Average number of basis functions per batch  ...    32.25 (23.20%)
Average number of large shells per batch     ...     7.08 (50.90%)
Average number of large basis fcns per batch ...    17.75 (55.04%)
Maximum spatial batch extension              ...  28.57, 31.41, 18.44 au
Average spatial batch extension              ...   0.89,  0.95,  0.67 au

Time for grid setup =    0.155 sec

------------------------------
INITIAL GUESS: MODEL POTENTIAL
------------------------------
Loading Hartree-Fock densities                     ... done
Calculating cut-offs                               ... done
Setting up the integral package                    ... done
Initializing the effective Hamiltonian             ... done
Starting the Coulomb interaction                   ... done (   0.0 sec)
Reading the grid                                   ... done
Mapping shells                                     ... done
Starting the XC term evaluation                    ... done (   0.0 sec)
  promolecular density results
     # of electrons  =     36.000019389
     EX              =    -76.507156076
     EC              =     -0.631779711
     EX+EC           =    -77.138935787
Transforming the Hamiltonian                       ... done (   0.0 sec)
Diagonalizing the Hamiltonian                      ... done (   0.0 sec)
Back transforming the eigenvectors                 ... done (   0.0 sec)
Now organizing SCF variables                       ... done
                      ------------------
                      INITIAL GUESS DONE (   0.3 sec)
                      ------------------
--------------
SCF ITERATIONS
--------------
ITER       Energy         Delta-E        Max-DP      RMS-DP      [F,P]     Damp
               ***  Starting incremental Fock matrix formation  ***
  0  -1482.1155983018   0.000000000000 1.32487859  0.01348797  0.8808812 0.7000
  1  -1481.7566724656   0.358925836214 0.38651661  0.00441643  0.3092468 0.7000
  2  -1481.9620329187  -0.205360453053 0.28110540  0.00358918  0.4306343 0.7000
  3  -1482.2551239161  -0.293090997411 0.19711044  0.00228106  0.2142772 0.7000
                               ***Turning on DIIS***
  4  -1482.4115893965  -0.156465480457 0.13788063  0.00152616  0.1031625 0.7000
  5  -1482.5175133633  -0.105923966796 0.32132282  0.00371231  0.0965502 0.0000
  6  -1482.7666223541  -0.249108990742 0.04804595  0.00064126  0.0419622 0.0000
  7  -1482.7708070030  -0.004184648968 0.02758545  0.00036926  0.0616598 0.0000
  8  -1482.7743713005  -0.003564297421 0.03112498  0.00029864  0.0146896 0.0000
  9  -1482.7761493337  -0.001778033261 0.02478002  0.00024794  0.0116712 0.0000
 10  -1482.7773140849  -0.001164751172 0.02302699  0.00024036  0.0068167 0.0000
 11  -1482.7783252536  -0.001011168695 0.02460925  0.00024972  0.0057457 0.0000
 12  -1482.7792097395  -0.000884485894 0.01990281  0.00020372  0.0046333 0.0000
 13  -1482.7798703293  -0.000660589809 0.02238463  0.00024016  0.0036804 0.0000
 14  -1482.7804936067  -0.000623277411 0.01644404  0.00015416  0.0044466 0.0000
 15  -1482.7809311799  -0.000437573194 0.01827105  0.00019865  0.0020764 0.0000
 16  -1482.7813571316  -0.000425951676 0.01518882  0.00013955  0.0026981 0.0000
 17  -1482.7816754620  -0.000318330421 0.01460419  0.00014732  0.0015511 0.0000
 18  -1482.7819463514  -0.000270889441 0.01192825  0.00010487  0.0024562 0.0000
 19  -1482.7821363793  -0.000190027826 0.04509379  0.00037264  0.0009198 0.0000
               *** Restarting incremental Fock matrix formation ***
                                   *** Resetting DIIS ***
 20  -1482.7824622679  -0.000325888608 0.00872356  0.00016161  0.0091765 0.0000
 21  -1482.7822427395   0.000219528378 0.00461616  0.00008920  0.0228651 0.0000
 22  -1482.7825306712  -0.000287931750 0.00379556  0.00003442  0.0076094 0.0000
 23  -1482.7825846132  -0.000053941984 0.00337899  0.00003109  0.0012804 0.0000
 24  -1482.7825999175  -0.000015304277 0.01141121  0.00009403  0.0006494 0.0000
 25  -1482.7826193746  -0.000019457078 0.00028981  0.00000343  0.0042129 0.0000
 26  -1482.7826217971  -0.000002422489 0.00004539  0.00000076  0.0039552 0.0000
 27  -1482.7826211909   0.000000606163 0.00014444  0.00000166  0.0040017 0.0000
 28  -1482.7826198440   0.000001346891 0.00045846  0.00000551  0.0041175 0.0000
 29  -1482.7826176320   0.000002212007 0.00422228  0.00006704  0.0042862 0.0000
 30  -1482.7826065720   0.000011059954 0.00160075  0.00003208  0.0077395 0.0000
 31  -1482.7826405504  -0.000033978313 0.00136202  0.00001425  0.0026876 0.0000
 32  -1482.7826480868  -0.000007536478 0.00531825  0.00004941  0.0005092 0.0000
 33  -1482.7826558273  -0.000007740468 0.00036659  0.00000509  0.0018636 0.0000
 34  -1482.7826577877  -0.000001960397 0.00031769  0.00000330  0.0015981 0.0000
 35  -1482.7826591344  -0.000001346715 0.00024476  0.00000191  0.0014438 0.0000
                 **** Energy Check signals convergence ****

               *****************************************************
               *                     SUCCESS                       *
               *           SCF CONVERGED AFTER  36 CYCLES          *
               *****************************************************


----------------
TOTAL SCF ENERGY
----------------

Total Energy       :        -1482.78265974 Eh          -40348.56745 eV

Components:
Nuclear Repulsion  :           73.34502022 Eh            1995.81947 eV
Electronic Energy  :        -1556.12767996 Eh          -42344.38692 eV
One Electron Energy:        -2203.25177860 Eh          -59953.52887 eV
Two Electron Energy:          647.12409864 Eh           17609.14196 eV

Virial components:
Potential Energy   :        -2963.71771282 Eh          -80646.85897 eV
Kinetic Energy     :         1480.93505307 Eh           40298.29152 eV
Virial Ratio       :            2.00124759


DFT components:
N(Alpha)           :       19.000016805687 electrons
N(Beta)            :       17.000016022983 electrons
N(Total)           :       36.000032828670 electrons
E(X)               :      -68.434083375732 Eh       
E(C)               :       -1.539394832607 Eh       
E(XC)              :      -69.973478208339 Eh       
DFET-embed. en.    :        0.000000000000 Eh       

---------------
SCF CONVERGENCE
---------------

  Last Energy change         ...   -6.0791e-07  Tolerance :   1.0000e-06
  Last MAX-Density change    ...    1.8279e-04  Tolerance :   1.0000e-05
  Last RMS-Density change    ...    1.3740e-06  Tolerance :   1.0000e-06
  Last DIIS Error            ...    1.4240e-03  Tolerance :   1.0000e-06

             **** THE GBW FILE WAS UPDATED (38_CoF.gbw) ****
             **** DENSITY FILE WAS UPDATED (38_CoF.scfp) ****
             **** ENERGY FILE WAS UPDATED (38_CoF.en.tmp) ****
----------------------
UHF SPIN CONTAMINATION
----------------------

Warning: in a DFT calculation there is little theoretical justification to 
         calculate <S**2> as in Hartree-Fock theory. We will do it anyways
         but you should keep in mind that the values have only limited relevance

Expectation value of <S**2>     :     2.266448
Ideal value S*(S+1) for S=1.0   :     2.000000
Deviation                       :     0.266448

             **** THE GBW FILE WAS UPDATED (38_CoF.gbw) ****
             **** DENSITY FILE WAS UPDATED (38_CoF.scfp) ****
----------------
ORBITAL ENERGIES
----------------
                 SPIN UP ORBITALS
  NO   OCC          E(Eh)            E(eV) 
   0   1.0000    -277.072163     -7539.5169 
   1   1.0000     -32.601138      -887.1221 
   2   1.0000     -28.271560      -769.3083 
   3   1.0000     -28.268503      -769.2251 
   4   1.0000     -28.265994      -769.1568 
   5   1.0000     -24.439226      -665.0251 
   6   1.0000      -3.726774      -101.4107 
   7   1.0000      -2.404752       -65.4366 
   8   1.0000      -2.397374       -65.2359 
   9   1.0000      -2.395970       -65.1977 
  10   1.0000      -1.047629       -28.5074 
  11   1.0000      -0.360138        -9.7998 
  12   1.0000      -0.352902        -9.6029 
  13   1.0000      -0.331156        -9.0112 
  14   1.0000      -0.277237        -7.5440 
  15   1.0000      -0.273458        -7.4412 
  16   1.0000      -0.228440        -6.2162 
  17   1.0000      -0.222717        -6.0604 
  18   1.0000      -0.204723        -5.5708 
  19   0.0000      -0.136914        -3.7256 
  20   0.0000      -0.028635        -0.7792 
  21   0.0000      -0.028106        -0.7648 
  22   0.0000       0.018389         0.5004 
  23   0.0000       0.022979         0.6253 
  24   0.0000       0.043071         1.1720 
  25   0.0000       0.044651         1.2150 
  26   0.0000       0.073809         2.0084 
  27   0.0000       0.092345         2.5128 
  28   0.0000       0.093482         2.5438 
  29   0.0000       0.093629         2.5478 
  30   0.0000       0.094946         2.5836 
  31   0.0000       0.105433         2.8690 
  32   0.0000       0.133369         3.6292 
  33   0.0000       0.210636         5.7317 
  34   0.0000       0.214755         5.8438 
  35   0.0000       0.235387         6.4052 
  36   0.0000       0.272027         7.4022 
  37   0.0000       0.273103         7.4315 
  38   0.0000       0.274447         7.4681 
  39   0.0000       0.308405         8.3921 
  40   0.0000       0.311689         8.4815 
  41   0.0000       0.328822         8.9477 
  42   0.0000       0.331145         9.0109 
  43   0.0000       0.377452        10.2710 
  44   0.0000       0.499675        13.5969 
  45   0.0000       0.611457        16.6386 
  46   0.0000       0.760997        20.7078 
  47   0.0000       0.761401        20.7188 
  48   0.0000       0.797170        21.6921 
  49   0.0000       0.800881        21.7931 
  50   0.0000       0.887014        24.1369 
  51   0.0000       0.938591        25.5404 
  52   0.0000       0.938842        25.5472 
  53   0.0000       0.992672        27.0120 
  54   0.0000       0.994486        27.0613 
  55   0.0000       1.028554        27.9884 
  56   0.0000       1.051148        28.6032 
  57   0.0000       1.053870        28.6773 
  58   0.0000       1.127848        30.6903 
  59   0.0000       1.128785        30.7158 
  60   0.0000       1.164438        31.6860 
  61   0.0000       1.179805        32.1041 
  62   0.0000       1.227702        33.4075 
  63   0.0000       1.240301        33.7503 
  64   0.0000       1.243593        33.8399 
  65   0.0000       1.445162        39.3248 
  66   0.0000       1.537219        41.8299 
  67   0.0000       1.627888        44.2971 
  68   0.0000       1.634202        44.4689 
  69   0.0000       2.356153        64.1142 
  70   0.0000       2.622611        71.3649 
  71   0.0000       2.623028        71.3762 
  72   0.0000       2.624031        71.4035 
  73   0.0000       2.624730        71.4225 
  74   0.0000       2.767915        75.3188 
  75   0.0000       2.768203        75.3266 
  76   0.0000       2.869077        78.0716 
  77   0.0000       2.869178        78.0743 
  78   0.0000       2.875258        78.2397 
  79   0.0000       3.097654        84.2915 
  80   0.0000       3.103870        84.4606 
  81   0.0000       3.127542        85.1047 
  82   0.0000       3.157492        85.9197 
  83   0.0000       3.157960        85.9325 
  84   0.0000       3.167524        86.1927 
  85   0.0000       3.178864        86.5013 
  86   0.0000       3.227487        87.8244 
  87   0.0000       3.377941        91.9184 
  88   0.0000       3.382080        92.0311 
  89   0.0000       3.506204        95.4087 
  90   0.0000       3.514125        95.6242 
  91   0.0000       3.770355       102.5966 
  92   0.0000       3.995362       108.7193 
  93   0.0000       4.053113       110.2908 
  94   0.0000       4.053164       110.2922 
  95   0.0000       4.054073       110.3169 
  96   0.0000       4.054565       110.3303 
  97   0.0000       4.242363       115.4406 
  98   0.0000       4.246187       115.5446 
  99   0.0000       4.507568       122.6572 
 100   0.0000       4.612400       125.5098 
 101   0.0000       4.634638       126.1149 
 102   0.0000       4.907322       133.5350 
 103   0.0000       4.913260       133.6966 
 104   0.0000       5.114522       139.1732 
 105   0.0000       5.151440       140.1778 
 106   0.0000       5.382755       146.4722 
 107   0.0000       5.458534       148.5343 
 108   0.0000       5.494269       149.5067 
 109   0.0000       6.587897       179.2658 
 110   0.0000       8.556492       232.8340 
 111   0.0000       8.556586       232.8365 
 112   0.0000       8.654280       235.4949 
 113   0.0000       8.656098       235.5444 
 114   0.0000       8.881297       241.6724 
 115   0.0000       8.882473       241.7044 
 116   0.0000       8.935223       243.1398 
 117   0.0000       8.992399       244.6956 
 118   0.0000       8.998221       244.8540 
 119   0.0000       9.005877       245.0624 
 120   0.0000       9.012121       245.2323 
 121   0.0000       9.240425       251.4447 
 122   0.0000      10.451400       284.3971 
 123   0.0000      10.462081       284.6877 
 124   0.0000      10.470544       284.9180 
 125   0.0000      10.475314       285.0478 
 126   0.0000      10.537096       286.7290 
 127   0.0000      10.589995       288.1684 
 128   0.0000      10.719501       291.6925 
 129   0.0000      11.635044       316.6056 
 130   0.0000      11.636899       316.6561 
 131   0.0000      11.652013       317.0674 
 132   0.0000      11.658338       317.2395 
 133   0.0000      11.711690       318.6913 
 134   0.0000      11.730436       319.2014 
 135   0.0000      11.940002       324.9040 
 136   0.0000      11.984888       326.1254 
 137   0.0000      12.125921       329.9631 
 138   0.0000      14.065718       382.7476 

                 SPIN DOWN ORBITALS
  NO   OCC          E(Eh)            E(eV) 
   0   1.0000    -277.068409     -7539.4147 
   1   1.0000     -32.563209      -886.0900 
   2   1.0000     -28.245446      -768.5977 
   3   1.0000     -28.244279      -768.5659 
   4   1.0000     -28.234371      -768.2963 
   5   1.0000     -24.441066      -665.0752 
   6   1.0000      -3.630394       -98.7880 
   7   1.0000      -2.325713       -63.2859 
   8   1.0000      -2.307285       -62.7844 
   9   1.0000      -2.298287       -62.5396 
  10   1.0000      -1.047866       -28.5139 
  11   1.0000      -0.372449       -10.1348 
  12   1.0000      -0.330077        -8.9819 
  13   1.0000      -0.314502        -8.5580 
  14   1.0000      -0.218660        -5.9500 
  15   1.0000      -0.216519        -5.8918 
  16   1.0000      -0.201965        -5.4957 
  17   0.0000      -0.120587        -3.2813 
  18   0.0000      -0.093996        -2.5578 
  19   0.0000      -0.093347        -2.5401 
  20   0.0000      -0.002281        -0.0621 
  21   0.0000      -0.002135        -0.0581 
  22   0.0000       0.015247         0.4149 
  23   0.0000       0.023761         0.6466 
  24   0.0000       0.050109         1.3635 
  25   0.0000       0.051347         1.3972 
  26   0.0000       0.075173         2.0456 
  27   0.0000       0.084588         2.3018 
  28   0.0000       0.086028         2.3409 
  29   0.0000       0.087021         2.3680 
  30   0.0000       0.088145         2.3985 
  31   0.0000       0.102107         2.7785 
  32   0.0000       0.131645         3.5822 
  33   0.0000       0.214197         5.8286 
  34   0.0000       0.215813         5.8726 
  35   0.0000       0.236673         6.4402 
  36   0.0000       0.269849         7.3430 
  37   0.0000       0.270517         7.3612 
  38   0.0000       0.274064         7.4577 
  39   0.0000       0.321496         8.7484 
  40   0.0000       0.334285         9.0964 
  41   0.0000       0.341954         9.3050 
  42   0.0000       0.355588         9.6760 
  43   0.0000       0.380300        10.3485 
  44   0.0000       0.512955        13.9582 
  45   0.0000       0.626911        17.0591 
  46   0.0000       0.767772        20.8921 
  47   0.0000       0.768870        20.9220 
  48   0.0000       0.823626        22.4120 
  49   0.0000       0.831910        22.6374 
  50   0.0000       0.893722        24.3194 
  51   0.0000       0.953588        25.9485 
  52   0.0000       0.953784        25.9538 
  53   0.0000       1.025336        27.9008 
  54   0.0000       1.032737        28.1022 
  55   0.0000       1.034599        28.1529 
  56   0.0000       1.056843        28.7582 
  57   0.0000       1.061785        28.8926 
  58   0.0000       1.157184        31.4886 
  59   0.0000       1.161618        31.6092 
  60   0.0000       1.183922        32.2161 
  61   0.0000       1.218777        33.1646 
  62   0.0000       1.237336        33.6696 
  63   0.0000       1.271847        34.6087 
  64   0.0000       1.303375        35.4666 
  65   0.0000       1.447172        39.3796 
  66   0.0000       1.554001        42.2865 
  67   0.0000       1.650112        44.9018 
  68   0.0000       1.669429        45.4275 
  69   0.0000       2.359069        64.1935 
  70   0.0000       2.622536        71.3628 
  71   0.0000       2.623986        71.4023 
  72   0.0000       2.625831        71.4525 
  73   0.0000       2.626177        71.4619 
  74   0.0000       2.772313        75.4385 
  75   0.0000       2.773768        75.4781 
  76   0.0000       2.876907        78.2846 
  77   0.0000       2.877774        78.3082 
  78   0.0000       2.883649        78.4681 
  79   0.0000       3.110086        84.6297 
  80   0.0000       3.123085        84.9835 
  81   0.0000       3.140667        85.4619 
  82   0.0000       3.203979        87.1847 
  83   0.0000       3.207210        87.2726 
  84   0.0000       3.224084        87.7318 
  85   0.0000       3.231013        87.9203 
  86   0.0000       3.248169        88.3872 
  87   0.0000       3.394013        92.3558 
  88   0.0000       3.399520        92.5056 
  89   0.0000       3.527515        95.9886 
  90   0.0000       3.538570        96.2894 
  91   0.0000       3.793418       103.2241 
  92   0.0000       4.008647       109.0808 
  93   0.0000       4.103203       111.6538 
  94   0.0000       4.107124       111.7605 
  95   0.0000       4.110573       111.8544 
  96   0.0000       4.112439       111.9052 
  97   0.0000       4.287522       116.6694 
  98   0.0000       4.290166       116.7414 
  99   0.0000       4.515812       122.8815 
 100   0.0000       4.645608       126.4134 
 101   0.0000       4.676621       127.2573 
 102   0.0000       4.909515       133.5947 
 103   0.0000       4.915917       133.7689 
 104   0.0000       5.128691       139.5588 
 105   0.0000       5.193556       141.3238 
 106   0.0000       5.365255       145.9960 
 107   0.0000       5.513339       150.0256 
 108   0.0000       5.566154       151.4627 
 109   0.0000       6.588293       179.2766 
 110   0.0000       8.562172       232.9885 
 111   0.0000       8.562320       232.9926 
 112   0.0000       8.651415       235.4170 
 113   0.0000       8.653127       235.4636 
 114   0.0000       8.887412       241.8388 
 115   0.0000       8.890864       241.9327 
 116   0.0000       8.918546       242.6860 
 117   0.0000       8.979083       244.3333 
 118   0.0000       8.980622       244.3752 
 119   0.0000       8.995702       244.7855 
 120   0.0000       9.001355       244.9393 
 121   0.0000       9.223664       250.9887 
 122   0.0000      10.512312       286.0546 
 123   0.0000      10.518629       286.2264 
 124   0.0000      10.520267       286.2710 
 125   0.0000      10.585546       288.0474 
 126   0.0000      10.624654       289.1115 
 127   0.0000      10.653539       289.8975 
 128   0.0000      10.725414       291.8534 
 129   0.0000      11.674153       317.6699 
 130   0.0000      11.676091       317.7226 
 131   0.0000      11.677791       317.7688 
 132   0.0000      11.679315       317.8103 
 133   0.0000      11.736672       319.3711 
 134   0.0000      11.755559       319.8850 
 135   0.0000      11.977268       325.9180 
 136   0.0000      11.980422       326.0039 
 137   0.0000      12.116877       329.7170 
 138   0.0000      14.072718       382.9381 

                    ********************************
                    * MULLIKEN POPULATION ANALYSIS *
                    ********************************

--------------------------------------------
MULLIKEN ATOMIC CHARGES AND SPIN POPULATIONS
--------------------------------------------
   0 Co:    0.596283    2.048007
   1 F :   -0.596283   -0.048007
Sum of atomic charges         :   -0.0000000
Sum of atomic spin populations:    2.0000000

-----------------------------------------------------
MULLIKEN REDUCED ORBITAL CHARGES AND SPIN POPULATIONS
-----------------------------------------------------
CHARGE
  0 Cos       :     6.658029  s :     6.658029
      pz      :     4.045119  p :    12.128060
      px      :     4.041327
      py      :     4.041613
      dz2     :     1.336008  d :     7.601468
      dxz     :     1.505128
      dyz     :     1.531150
      dx2y2   :     1.997721
      dxy     :     1.231461
      f0      :     0.006300  f :     0.014868
      f+1     :     0.004042
      f-1     :     0.004079
      f+2     :     0.000128
      f-2     :     0.000218
      f+3     :     0.000056
      f-3     :     0.000044
      g0      :     0.000620  g :     0.001292
      g+1     :     0.000292
      g-1     :     0.000292
      g+2     :     0.000008
      g-2     :     0.000042
      g+3     :     0.000005
      g-3     :     0.000006
      g+4     :     0.000019
      g-4     :     0.000007
  1 F s       :     4.008093  s :     4.008093
      pz      :     1.713107  p :     5.576012
      px      :     1.930846
      py      :     1.932059
      dz2     :     0.001876  d :     0.010326
      dxz     :     0.004048
      dyz     :     0.004049
      dx2y2   :     0.000238
      dxy     :     0.000114
      f0      :     0.000737  f :     0.001852
      f+1     :     0.000481
      f-1     :     0.000480
      f+2     :     0.000095
      f-2     :     0.000058
      f+3     :     0.000000
      f-3     :     0.000000

SPIN
  0 Cos       :     0.461327  s :     0.461327
      pz      :     0.009375  p :     0.032780
      px      :     0.011688
      py      :     0.011717
      dz2     :    -0.128096  d :     1.554069
      dxz     :     0.484629
      dyz     :     0.458515
      dx2y2   :     0.001717
      dxy     :     0.737304
      f0      :    -0.000068  f :    -0.000102
      f+1     :    -0.000018
      f-1     :    -0.000068
      f+2     :     0.000071
      f-2     :     0.000039
      f+3     :    -0.000032
      f-3     :    -0.000026
      g0      :    -0.000043  g :    -0.000068
      g+1     :    -0.000007
      g-1     :    -0.000007
      g+2     :     0.000007
      g-2     :    -0.000016
      g+3     :     0.000004
      g-3     :     0.000004
      g+4     :    -0.000005
      g-4     :    -0.000004
  1 F s       :     0.001297  s :     0.001297
      pz      :    -0.083265  p :    -0.048309
      px      :     0.018183
      py      :     0.016773
      dz2     :     0.000297  d :    -0.000966
      dxz     :    -0.000601
      dyz     :    -0.000613
      dx2y2   :    -0.000077
      dxy     :     0.000029
      f0      :     0.000084  f :    -0.000029
      f+1     :    -0.000070
      f-1     :    -0.000070
      f+2     :    -0.000002
      f-2     :     0.000029
      f+3     :     0.000000
      f-3     :     0.000000


                     *******************************
                     * LOEWDIN POPULATION ANALYSIS *
                     *******************************

-------------------------------------------
LOEWDIN ATOMIC CHARGES AND SPIN POPULATIONS
-------------------------------------------
   0 Co:    0.424537    1.961179
   1 F :   -0.424537    0.038821

----------------------------------------------------
LOEWDIN REDUCED ORBITAL CHARGES AND SPIN POPULATIONS
----------------------------------------------------
CHARGE
  0 Cos       :     6.534582  s :     6.534582
      pz      :     4.107517  p :    12.222541
      px      :     4.057232
      py      :     4.057792
      dz2     :     1.414173  d :     7.666316
      dxz     :     1.503008
      dyz     :     1.528012
      dx2y2   :     1.992562
      dxy     :     1.228561
      f0      :     0.063600  f :     0.144639
      f+1     :     0.040065
      f-1     :     0.040225
      f+2     :     0.000308
      f-2     :     0.000342
      f+3     :     0.000056
      f-3     :     0.000044
      g0      :     0.003784  g :     0.007385
      g+1     :     0.001749
      g-1     :     0.001757
      g+2     :     0.000014
      g-2     :     0.000044
      g+3     :     0.000005
      g-3     :     0.000006
      g+4     :     0.000019
      g-4     :     0.000007
  1 F s       :     3.729703  s :     3.729703
      pz      :     1.810162  p :     5.483938
      px      :     1.836333
      py      :     1.837444
      dz2     :     0.086715  d :     0.167438
      dxz     :     0.037134
      dyz     :     0.037677
      dx2y2   :     0.003822
      dxy     :     0.002090
      f0      :     0.019655  f :     0.043458
      f+1     :     0.010643
      f-1     :     0.010817
      f+2     :     0.001486
      f-2     :     0.000857
      f+3     :     0.000000
      f-3     :     0.000000

SPIN
  0 Cos       :     0.401812  s :     0.401812
      pz      :     0.001106  p :     0.032576
      px      :     0.015795
      py      :     0.015675
      dz2     :    -0.125218  d :     1.525389
      dxz     :     0.469439
      dyz     :     0.444133
      dx2y2   :     0.001416
      dxy     :     0.735619
      f0      :    -0.001688  f :     0.001399
      f+1     :     0.001528
      f-1     :     0.001364
      f+2     :     0.000125
      f-2     :     0.000128
      f+3     :    -0.000032
      f-3     :    -0.000026
      g0      :    -0.000297  g :     0.000003
      g+1     :     0.000158
      g-1     :     0.000155
      g+2     :     0.000003
      g-2     :    -0.000015
      g+3     :     0.000004
      g-3     :     0.000004
      g+4     :    -0.000005
      g-4     :    -0.000004
  1 F s       :     0.016095  s :     0.016095
      pz      :    -0.027484  p :     0.005965
      px      :     0.017384
      py      :     0.016065
      dz2     :    -0.002158  d :     0.012275
      dxz     :     0.006812
      dyz     :     0.006331
      dx2y2   :     0.000130
      dxy     :     0.001160
      f0      :    -0.001260  f :     0.004485
      f+1     :     0.002687
      f-1     :     0.002523
      f+2     :     0.000042
      f-2     :     0.000493
      f+3     :     0.000000
      f-3     :     0.000000


                      *****************************
                      * MAYER POPULATION ANALYSIS *
                      *****************************

  NA   - Mulliken gross atomic population
  ZA   - Total nuclear charge
  QA   - Mulliken gross atomic charge
  VA   - Mayer's total valence
  BVA  - Mayer's bonded valence
  FA   - Mayer's free valence

  ATOM       NA         ZA         QA         VA         BVA        FA
  0 Co    26.4037    27.0000     0.5963     3.1476     0.7793     2.3683
  1 F      9.5963     9.0000    -0.5963     0.7894     0.7793     0.0101

  Mayer bond orders larger than 0.100000
B(  0-Co,  1-F ) :   0.7793 

-------
TIMINGS
-------

Total SCF time: 0 days 0 hours 0 min 7 sec 

Total time                  ....       7.225 sec
Sum of individual times     ....       7.034 sec  ( 97.3%)

Fock matrix formation       ....       6.497 sec  ( 89.9%)
  Split-RI-J                ....       4.884 sec  ( 75.2% of F)
  XC integration            ....       1.302 sec  ( 20.0% of F)
    Basis function eval.    ....       0.183 sec  ( 14.0% of XC)
    Density eval.           ....       0.211 sec  ( 16.2% of XC)
    XC-Functional eval.     ....       0.039 sec  (  3.0% of XC)
    XC-Potential eval.      ....       0.585 sec  ( 44.9% of XC)
Diagonalization             ....       0.186 sec  (  2.6%)
Density matrix formation    ....       0.022 sec  (  0.3%)
Population analysis         ....       0.006 sec  (  0.1%)
Initial guess               ....       0.101 sec  (  1.4%)
Orbital Transformation      ....       0.000 sec  (  0.0%)
Orbital Orthonormalization  ....       0.000 sec  (  0.0%)
DIIS solution               ....       0.066 sec  (  0.9%)
Grid generation             ....       0.155 sec  (  2.1%)


-------------------------------------------------------------------------------
                          DFT DISPERSION CORRECTION                            
                                                                               
                              DFTD3 V3.1  Rev 1                                
                          USING Becke-Johnson damping                          
-------------------------------------------------------------------------------
The SCAN functional is recognized
Active option DFTDOPT                   ...         4   

molecular C6(AA) [au] = 300.119754 


            DFT-D V3
 parameters
 s6 scaling factor         :     1.0000 
 a1 scaling factor         :     0.5380 
 s8 scaling factor         :     0.0000 
 a2 scaling factor         :     5.4200 
 ad hoc parameters k1-k3   :    16.0000     1.3333    -4.0000 

 Edisp/kcal,au: -0.045858641859  -0.000073080390 
 E6   /kcal   :  -0.045858642 
 E8   /kcal   :  -0.000000000 
 % E8         :   0.000000000 

-------------------------   ----------------
Dispersion correction           -0.000073080
-------------------------   ----------------


-------------------------   --------------------
FINAL SINGLE POINT ENERGY     -1482.782732822723
-------------------------   --------------------


                            ***************************************
                            *     ORCA property calculations      *
                            ***************************************

                                    ---------------------
                                    Active property flags
                                    ---------------------
   (+) Dipole Moment


------------------------------------------------------------------------------
                       ORCA ELECTRIC PROPERTIES CALCULATION
------------------------------------------------------------------------------

Dipole Moment Calculation                       ... on
Quadrupole Moment Calculation                   ... off
Polarizability Calculation                      ... off
GBWName                                         ... 38_CoF.gbw
Electron density file                           ... 38_CoF.scfp
The origin for moment calculation is the CENTER OF MASS  = ( 0.000000,  0.000000  1.040872)

-------------
DIPOLE MOMENT
-------------
                                X             Y             Z
Electronic contribution:      0.00000       0.00000      -2.34562
Nuclear contribution   :      0.00000       0.00000       0.74078
                        -----------------------------------------
Total Dipole Moment    :      0.00000       0.00000      -1.60484
                        -----------------------------------------
Magnitude (a.u.)       :      1.60484
Magnitude (Debye)      :      4.07919



--------------------
Rotational spectrum 
--------------------
 
Rotational constants in cm-1:     0.000000     0.381744     0.381744 
Rotational constants in MHz :     0.000000 11444.406260 11444.406260 

 Dipole components along the rotational axes: 
x,y,z [a.u.] :    -1.604842     0.000000     0.000000 
x,y,z [Debye]:    -4.079185     0.000001     0.000000 

 

Timings for individual modules:

Sum of individual times         ...       10.244 sec (=   0.171 min)
GTO integral calculation        ...        2.649 sec (=   0.044 min)  25.9 %
SCF iterations                  ...        7.594 sec (=   0.127 min)  74.1 %
                             ****ORCA TERMINATED NORMALLY****
TOTAL RUN TIME: 0 days 0 hours 0 minutes 10 seconds 813 msec
