
                                 *****************
                                 * O   R   C   A *
                                 *****************

           --- An Ab Initio, DFT and Semiempirical electronic structure package ---

                  #######################################################
                  #                        -***-                        #
                  #          Department of theory and spectroscopy      #
                  #               Directorship: Frank Neese             #
                  #        Max Planck Institute fuer Kohlenforschung    #
                  #                Kaiser Wilhelm Platz 1               #
                  #                 D-45470 Muelheim/Ruhr               #
                  #                      Germany                        #
                  #                                                     #
                  #                  All rights reserved                #
                  #                        -***-                        #
                  #######################################################


                         Program Version 4.2.0 -  RELEASE  -


 With contributions from (in alphabetic order):
   Daniel Aravena         : Magnetic Suceptibility
   Michael Atanasov       : Ab Initio Ligand Field Theory (pilot matlab implementation)
   Alexander A. Auer      : GIAO ZORA, VPT2
   Ute Becker             : Parallelization
   Giovanni Bistoni       : ED, misc. LED, open-shell LED, HFLED
   Martin Brehm           : Molecular dynamics
   Dmytro Bykov           : SCF Hessian
   Vijay G. Chilkuri      : MRCI spin determinant printing, contributions to CSF-ICE
   Dipayan Datta          : RHF DLPNO-CCSD density
   Achintya Kumar Dutta   : EOM-CC, STEOM-CC
   Dmitry Ganyushin       : Spin-Orbit,Spin-Spin,Magnetic field MRCI
   Miquel Garcia          : C-PCM Hessian, Gaussian charge scheme
   Yang Guo               : DLPNO-NEVPT2, CIM, IAO-localization
   Andreas Hansen         : Spin unrestricted coupled pair/coupled cluster methods
   Benjamin Helmich-Paris : CASSCF linear response (MC-RPA)
   Lee Huntington         : MR-EOM, pCC
   Robert Izsak           : Overlap fitted RIJCOSX, COSX-SCS-MP3, EOM
   Christian Kollmar      : KDIIS, OOCD, Brueckner-CCSD(T), CCSD density
   Simone Kossmann        : Meta GGA functionals, TD-DFT gradient, OOMP2, MP2 Hessian
   Martin Krupicka        : AUTO-CI
   Lucas Lang             : DCDCAS
   Dagmar Lenk            : GEPOL surface, SMD
   Dimitrios Liakos       : Extrapolation schemes; Compound Job, initial MDCI parallelization
   Dimitrios Manganas     : Further ROCIS development; embedding schemes
   Dimitrios Pantazis     : SARC Basis sets
   Taras Petrenko         : DFT Hessian,TD-DFT gradient, ASA, ECA, R-Raman, ABS, FL, XAS/XES, NRVS
   Peter Pinski           : DLPNO-MP2, DLPNO-MP2 Gradient
   Christoph Reimann      : Effective Core Potentials
   Marius Retegan         : Local ZFS, SOC
   Christoph Riplinger    : Optimizer, TS searches, QM/MM, DLPNO-CCSD(T), (RO)-DLPNO pert. Triples
   Tobias Risthaus        : Range-separated hybrids, TD-DFT gradient, RPA, STAB
   Michael Roemelt        : Original ROCIS implementation
   Masaaki Saitow         : Open-shell DLPNO-CCSD energy and density
   Barbara Sandhoefer     : DKH picture change effects
   Avijit Sen             : IP-ROCIS
   Kantharuban Sivalingam : CASSCF convergence, NEVPT2, FIC-MRCI
   Bernardo de Souza      : ESD, SOC TD-DFT
   Georgi Stoychev        : AutoAux, RI-MP2 NMR
   Willem Van den Heuvel  : Paramagnetic NMR
   Boris Wezisla          : Elementary symmetry handling
   Frank Wennmohs         : Technical directorship


 We gratefully acknowledge several colleagues who have allowed us to
 interface, adapt or use parts of their codes:
   Stefan Grimme, W. Hujo, H. Kruse,             : VdW corrections, initial TS optimization,
                  C. Bannwarth                     DFT functionals, gCP, sTDA/sTD-DF
   Ed Valeev, F. Pavosevic, A. Kumar             : LibInt (2-el integral package), F12 methods
   Garnet Chan, S. Sharma, J. Yang, R. Olivares  : DMRG
   Ulf Ekstrom                                   : XCFun DFT Library
   Mihaly Kallay                                 : mrcc  (arbitrary order and MRCC methods)
   Andreas Klamt, Michael Diedenhofen            : otool_cosmo (COSMO solvation model)
   Jiri Pittner, Ondrej Demel                    : Mk-CCSD
   Frank Weinhold                                : gennbo (NPA and NBO analysis)
   Christopher J. Cramer and Donald G. Truhlar   : smd solvation model
   Lars Goerigk                                  : TD-DFT with DH, B97 family of functionals
   V. Asgeirsson, H. Jonsson                     : NEB implementation
   FAccTs GmbH                                   : IRC, NEB, NEB-TS, Multilevel, MM, QM/MM, CI optimization
   S Lehtola, MJT Oliveira, MAL Marques          : LibXC Library


 Your calculation uses the libint2 library for the computation of 2-el integrals
 For citations please refer to: http://libint.valeyev.net

 Your ORCA version has been built with support for libXC version: 4.2.3
 For citations please refer to: https://tddft.org/programs/libxc/

 This ORCA versions uses:
   CBLAS   interface :  Fast vector & matrix operations
   LAPACKE interface :  Fast linear algebra routines
   SCALAPACK package :  Parallel linear algebra routines


Your calculation utilizes the atom-pairwise dispersion correction
with the Becke-Johnson damping scheme (D3BJ)
Cite in your paper:
S.Grimme, S.Ehrlich, L.Goerigk, J Comput Chem, (2011), 32, 1456–1465 
S.Grimme, J.Antony, S.Ehrlich and H.Krieg, J.Chem.Phys., 132, (2010), 154104 
   

----- Orbital basis set information -----
Your calculation utilizes the basis: aug-cc-pVTZ 
    H, B-Ne : Obtained from the ccRepo (grant-hill.group.shef.ac.uk/ccrepo) Feb. 2017
              R. A. Kendall, T. H. Dunning, Jr., R. J. Harrison, J. Chem. Phys. 96, 6796 (1992)
         He : Obtained from the ccRepo (grant-hill.group.shef.ac.uk/ccrepo) Feb. 2017
              D. E. Woon, T. H. Dunning, Jr., J. Chem. Phys. 100, 2975 (1994)
  Li-Be, Na : Obtained from the ccRepo (grant-hill.group.shef.ac.uk/ccrepo) Feb. 2017
              B. P. Prascher, D. E. Woon, K. A. Peterson, T. H. Dunning, Jr., A. K. Wilson, Theor. Chem. Acc. 128, 69 (2011)
         Mg : Obtained from the Peterson Research Group Website (tyr0.chem.wsu.edu/~kipeters) Feb. 2017
              B. P. Prascher, D. E. Woon, K. A. Peterson, T. H. Dunning, Jr., A. K. Wilson, Theor. Chem. Acc. 128, 69 (2011)
      Al-Ar : Obtained from the ccRepo (grant-hill.group.shef.ac.uk/ccrepo) Feb. 2017
              D. E. Woon, T. H. Dunning, Jr., J. Chem. Phys. 98, 1358 (1993)
      Sc-Zn : Obtained from the ccRepo (grant-hill.group.shef.ac.uk/ccrepo) Feb. 2017
              N. B. Balabanov, K. A. Peterson, J. Chem. Phys. 123, 064107 (2005)
              N. B. Balabanov, K. A. Peterson, J. Chem. Phys. 125, 074110 (2006)
      Ga-Kr : Obtained from the ccRepo (grant-hill.group.shef.ac.uk/ccrepo) Feb. 2017
              A. K. Wilson, D. E. Woon, K. A. Peterson, T. H. Dunning, Jr., J. Chem. Phys. 110, 7667 (1999)
     Ag, Au : Obtained from the Peterson Research Group Website (tyr0.chem.wsu.edu/~kipeters) Feb. 2017
              K. A. Peterson, C. Puzzarini, Theor. Chem. Acc. 114, 283 (2005)

----- AuxJ basis set information -----
Your calculation utilizes the auxiliary basis: def2/J
   F. Weigend, Phys. Chem. Chem. Phys. 8, 1057 (2006).

================================================================================
                                        WARNINGS
                       Please study these warnings very carefully!
================================================================================


WARNING: your system is open-shell and RHF/RKS was chosen
  ===> : WILL SWITCH to UHF/UKS


WARNING: The SCAN functional is very grid-sensitive!
         Use at least GRID5 and a higher intacc

INFO   : the flag for use of LIBINT has been found!

================================================================================
                                       INPUT FILE
================================================================================
NAME = 39_CoCl.in
|  1> #
|  2> # 39_CoCl scanfunc/aug-cc-pvtz
|  3> #
|  4> ! scanfunc d3bj aug-cc-pvtz def2/j grid4 nofinalgrid
|  5> 
|  6> *xyz 0 3
|  7>   Co  0.00000000000000      0.00000000000000     -0.04491550120186
|  8>   Cl  0.00000000000000      0.00000000000000      2.04491550120186
|  9> *
| 10> 
| 11> %pal
| 12> nprocs 24
| 13> end
| 14> 
| 15> 
| 16>                          ****END OF INPUT****
================================================================================

                       ****************************
                       * Single Point Calculation *
                       ****************************

---------------------------------
CARTESIAN COORDINATES (ANGSTROEM)
---------------------------------
  Co     0.000000    0.000000   -0.044916
  Cl     0.000000    0.000000    2.044916

----------------------------
CARTESIAN COORDINATES (A.U.)
----------------------------
  NO LB      ZA    FRAG     MASS         X           Y           Z
   0 Co   27.0000    0    58.930    0.000000    0.000000   -0.084878
   1 Cl   17.0000    0    35.453    0.000000    0.000000    3.864330

--------------------------------
INTERNAL COORDINATES (ANGSTROEM)
--------------------------------
 Co     0   0   0     0.000000000000     0.00000000     0.00000000
 Cl     1   0   0     2.089831002404     0.00000000     0.00000000

---------------------------
INTERNAL COORDINATES (A.U.)
---------------------------
 Co     0   0   0     0.000000000000     0.00000000     0.00000000
 Cl     1   0   0     3.949208260721     0.00000000     0.00000000

---------------------
BASIS SET INFORMATION
---------------------
There are 2 groups of distinct atoms

 Group   1 Type Co  : 116s77p23d3f2g contracted to 8s7p5d3f2g pattern {19191919191911/151515151511/77711/111/11}
 Group   2 Type Cl  : 42s17p3d2f contracted to 6s5p3d2f pattern {131313111/77111/111/11}

Atom   0Co   basis set group =>   1
Atom   1Cl   basis set group =>   2
---------------------------------
AUXILIARY/J BASIS SET INFORMATION
---------------------------------
There are 2 groups of distinct atoms

 Group   1 Type Co  : 19s5p5d3f3g contracted to 8s5p5d2f3g pattern {121111111/11111/11111/21/111}
 Group   2 Type Cl  : 14s5p5d2f1g contracted to 8s4p3d1f1g pattern {71111111/2111/311/2/1}

Atom   0Co   basis set group =>   1
Atom   1Cl   basis set group =>   2


           ************************************************************
           *        Program running with 24 parallel MPI-processes    *
           *              working on a common directory               *
           ************************************************************
------------------------------------------------------------------------------
                           ORCA GTO INTEGRAL CALCULATION
                           -- RI-GTO INTEGRALS CHOSEN --
------------------------------------------------------------------------------

                         BASIS SET STATISTICS AND STARTUP INFO

Gaussian basis set:
 # of primitive gaussian shells          ...  285
 # of primitive gaussian functions       ...  623
 # of contracted shells                  ...   41
 # of contracted basis functions         ...  143
 Highest angular momentum                ...    4
 Maximum contraction depth               ...   19
Auxiliary gaussian basis set:
 # of primitive gaussian shells          ...   62
 # of primitive gaussian functions       ...  184
 # of contracted shells                  ...   40
 # of contracted aux-basis functions     ...  140
 Highest angular momentum                ...    4
 Maximum contraction depth               ...   12
Ratio of auxiliary to basis functions    ...  0.98
Integral package used                  ... LIBINT
 One Electron integrals                  ... done
 Ordering auxiliary basis shells         ... done
 Integral threshhold             Thresh  ...  1.000e-10
 Primitive cut-off               TCut    ...  1.000e-11
 Pre-screening matrix                    ... done
 Shell pair data                         ... 
 Ordering of the shell pairs             ... done (   0.000 sec) 861 of 861 pairs
 Determination of significant pairs      ... done (   0.000 sec)
 Creation of shell pair data             ... done (   0.001 sec)
 Storage of shell pair data              ... done (   0.031 sec)
 Shell pair data done in (   0.032 sec)
 Computing two index integrals           ... done
 Cholesky decomposition of the V-matrix  ... done


Timings:
 Total evaluation time                   ...   2.653 sec (  0.044 min)
 One electron matrix time                ...   0.053 sec (  0.001 min) =  2.0%
 Schwartz matrix evaluation time         ...   2.540 sec (  0.042 min) = 95.8%
 Two index repulsion integral time       ...   0.001 sec (  0.000 min) =  0.0%
 Cholesky decomposition of V             ...   0.001 sec (  0.000 min) =  0.0%
 Three index repulsion integral time     ...   0.000 sec (  0.000 min) =  0.0%



           ************************************************************
           *        Program running with 24 parallel MPI-processes    *
           *              working on a common directory               *
           ************************************************************
-------------------------------------------------------------------------------
                                 ORCA SCF
-------------------------------------------------------------------------------

------------
SCF SETTINGS
------------
Hamiltonian:
 Density Functional     Method          .... DFT(GTOs)
 Exchange Functional    Exchange        .... SCAN
 Correlation Functional Correlation     .... SCAN
 Gradients option       PostSCFGGA      .... off
   Density functional embedding theory  .... OFF
   NL short-range parameter             ....  6.400000
 RI-approximation to the Coulomb term is turned on
   Number of auxiliary basis functions  .... 140


General Settings:
 Integral files         IntName         .... 39_CoCl
 Hartree-Fock type      HFTyp           .... UHF
 Total Charge           Charge          ....    0
 Multiplicity           Mult            ....    3
 Number of Electrons    NEL             ....   44
 Basis Dimension        Dim             ....  143
 Nuclear Repulsion      ENuc            ....    116.2258279882 Eh

Convergence Acceleration:
 DIIS                   CNVDIIS         .... on
   Start iteration      DIISMaxIt       ....    12
   Startup error        DIISStart       ....  0.200000
   # of expansion vecs  DIISMaxEq       ....     5
   Bias factor          DIISBfac        ....   1.050
   Max. coefficient     DIISMaxC        ....  10.000
 Newton-Raphson         CNVNR           .... off
 SOSCF                  CNVSOSCF        .... off
 Level Shifting         CNVShift        .... on
   Level shift para.    LevelShift      ....    0.2500
   Turn off err/grad.   ShiftErr        ....    0.0010
 Zerner damping         CNVZerner       .... off
 Static damping         CNVDamp         .... on
   Fraction old density DampFac         ....    0.7000
   Max. Damping (<1)    DampMax         ....    0.9800
   Min. Damping (>=0)   DampMin         ....    0.0000
   Turn off err/grad.   DampErr         ....    0.1000
 Fernandez-Rico         CNVRico         .... off

SCF Procedure:
 Maximum # iterations   MaxIter         ....   125
 SCF integral mode      SCFMode         .... Direct
   Integral package                     .... LIBINT
 Reset frequency        DirectResetFreq ....    20
 Integral Threshold     Thresh          ....  1.000e-10 Eh
 Primitive CutOff       TCut            ....  1.000e-11 Eh

Convergence Tolerance:
 Convergence Check Mode ConvCheckMode   .... Total+1el-Energy
 Convergence forced     ConvForced      .... 0
 Energy Change          TolE            ....  1.000e-06 Eh
 1-El. energy change                    ....  1.000e-03 Eh
 DIIS Error             TolErr          ....  1.000e-06


Diagonalization of the overlap matrix:
Smallest eigenvalue                        ... 1.371e-04
Time for diagonalization                   ...    0.004 sec
Threshold for overlap eigenvalues          ... 1.000e-08
Number of eigenvalues below threshold      ... 0
Time for construction of square roots      ...    0.002 sec
Total time needed                          ...    0.007 sec

-------------------
DFT GRID GENERATION
-------------------

General Integration Accuracy     IntAcc      ...  4.670
Radial Grid Type                 RadialGrid  ... Gauss-Chebyshev
Angular Grid (max. acc.)         AngularGrid ... Lebedev-302
Angular grid pruning method      GridPruning ... 3 (G Style)
Weight generation scheme         WeightScheme... Becke
Basis function cutoff            BFCut       ...    1.0000e-10
Integration weight cutoff        WCut        ...    1.0000e-14
Grids for H and He will be reduced by one unit

# of grid points (after initial pruning)     ...  16378 (   0.0 sec)
# of grid points (after weights+screening)   ...  16349 (   0.0 sec)
nearest neighbour list constructed           ...    0.0 sec
Grid point re-assignment to atoms done       ...    0.0 sec
Grid point division into batches done        ...    0.1 sec
Reduced shell lists constructed in    0.1 sec

Total number of grid points                  ...    16349
Total number of batches                      ...      257
Average number of points per batch           ...       63
Average number of grid points per atom       ...     8174
Average number of shells per batch           ...    13.00 (31.71%)
Average number of basis functions per batch  ...    30.17 (21.10%)
Average number of large shells per batch     ...     6.83 (52.56%)
Average number of large basis fcns per batch ...    17.83 (59.12%)
Maximum spatial batch extension              ...  24.49, 24.19, 17.58 au
Average spatial batch extension              ...   0.85,  0.84,  0.65 au

Time for grid setup =    0.162 sec

------------------------------
INITIAL GUESS: MODEL POTENTIAL
------------------------------
Loading Hartree-Fock densities                     ... done
Calculating cut-offs                               ... done
Setting up the integral package                    ... done
Initializing the effective Hamiltonian             ... done
Starting the Coulomb interaction                   ... done (   0.0 sec)
Reading the grid                                   ... done
Mapping shells                                     ... done
Starting the XC term evaluation                    ... done (   0.0 sec)
  promolecular density results
     # of electrons  =     44.000019281
     EX              =    -96.232776620
     EC              =     -0.776418636
     EX+EC           =    -97.009195256
Transforming the Hamiltonian                       ... done (   0.0 sec)
Diagonalizing the Hamiltonian                      ... done (   0.0 sec)
Back transforming the eigenvectors                 ... done (   0.0 sec)
Now organizing SCF variables                       ... done
                      ------------------
                      INITIAL GUESS DONE (   0.3 sec)
                      ------------------
--------------
SCF ITERATIONS
--------------
ITER       Energy         Delta-E        Max-DP      RMS-DP      [F,P]     Damp
               ***  Starting incremental Fock matrix formation  ***
  0  -1841.0093404981   0.000000000000 7.84943224  0.06896793  1.4526247 0.7000
  1  -1841.7695305584  -0.760190060302 2.35100316  0.02072154  0.3066956 0.7000
  2  -1842.1951375517  -0.425606993261 1.64891311  0.01464365  0.4092771 0.7000
  3  -1842.4848063598  -0.289668808117 1.15513804  0.01024525  0.2043461 0.7000
                               ***Turning on DIIS***
  4  -1842.6748736278  -0.190067268060 0.80895100  0.00716222  0.1004537 0.7000
  5  -1842.8070250846  -0.132151456751 1.88739147  0.01675524  0.0857268 0.0000
  6  -1843.1295273167  -0.322502232154 0.02602316  0.00068594  0.0740192 0.0000
  7  -1843.1360463998  -0.006519083077 0.01936002  0.00042666  0.0708246 0.0000
  8  -1843.1407949109  -0.004748511035 0.00848050  0.00019993  0.0259875 0.0000
  9  -1843.1421939822  -0.001399071364 0.00610912  0.00011103  0.0045088 0.0000
 10  -1843.1426088495  -0.000414867252 0.00721558  0.00009366  0.0027056 0.0000
 11  -1843.1428574195  -0.000248569982 0.00833007  0.00009482  0.0014023 0.0000
 12  -1843.1430465163  -0.000189096876 0.00838036  0.00008570  0.0011677 0.0000
 13  -1843.1431959024  -0.000149386111 0.00881764  0.00008869  0.0010068 0.0000
 14  -1843.1433329141  -0.000137011653 0.00768442  0.00007029  0.0011199 0.0000
 15  -1843.1434349220  -0.000102007883 0.00750964  0.00007107  0.0012081 0.0000
 16  -1843.1435295747  -0.000094652735 0.03681916  0.00030503  0.0006992 0.0000
 17  -1843.1438153273  -0.000285752582 0.00094127  0.00001389  0.0065638 0.0000
 18  -1843.1437983959   0.000016931361 0.00178888  0.00002100  0.0072739 0.0000
 19  -1843.1437751135   0.000023282409 0.00114883  0.00001082  0.0078370 0.0000
               *** Restarting incremental Fock matrix formation ***
                                   *** Resetting DIIS ***
 20  -1843.1437901356  -0.000015022044 0.00643900  0.00011889  0.0076896 0.0000
 21  -1843.1436763293   0.000113806281 0.00334656  0.00006635  0.0178082 0.0000
 22  -1843.1438663784  -0.000190049110 0.00358946  0.00002960  0.0050537 0.0000
 23  -1843.1439007803  -0.000034401861 0.01343930  0.00010189  0.0004392 0.0000
 24  -1843.1439272572  -0.000026476893 0.00050836  0.00000832  0.0043299 0.0000
 25  -1843.1439341891  -0.000006931996 0.00023048  0.00000230  0.0036142 0.0000
 26  -1843.1439359903  -0.000001801181 0.00011739  0.00000152  0.0034840 0.0000
 27  -1843.1439355719   0.000000418436 0.00012486  0.00000251  0.0035918 0.0000
 28  -1843.1439335395   0.000002032381 0.00230177  0.00004349  0.0038429 0.0000
 29  -1843.1439475460  -0.000014006526 0.00129489  0.00001918  0.0036332 0.0000
 30  -1843.1439577169  -0.000010170835 0.00604535  0.00004665  0.0008804 0.0000
 31  -1843.1439623128  -0.000004595956 0.00056110  0.00000935  0.0018506 0.0000
 32  -1843.1439655472  -0.000003234362 0.00047058  0.00000588  0.0012266 0.0000
 33  -1843.1439671954  -0.000001648164 0.00147554  0.00001287  0.0008683 0.0000
 34  -1843.1439680476  -0.000000852231 0.00002486  0.00000037  0.0010129 0.0000
 35  -1843.1439678867   0.000000160856 0.00082918  0.00001743  0.0010587 0.0000
 36  -1843.1439700577  -0.000002170956 0.00174715  0.00001522  0.0002540 0.0000
                 **** Energy Check signals convergence ****

               *****************************************************
               *                     SUCCESS                       *
               *           SCF CONVERGED AFTER  37 CYCLES          *
               *****************************************************


----------------
TOTAL SCF ENERGY
----------------

Total Energy       :        -1843.14396977 Eh          -50154.49722 eV

Components:
Nuclear Repulsion  :          116.22582799 Eh            3162.66557 eV
Electronic Energy  :        -1959.36979776 Eh          -53317.16279 eV
One Electron Energy:        -2785.45682301 Eh          -75796.13355 eV
Two Electron Energy:          826.08702525 Eh           22478.97077 eV

Virial components:
Potential Energy   :        -3683.91988764 Eh         -100244.55648 eV
Kinetic Energy     :         1840.77591787 Eh           50090.05925 eV
Virial Ratio       :            2.00128644


DFT components:
N(Alpha)           :       23.000002888973 electrons
N(Beta)            :       21.000002667889 electrons
N(Total)           :       44.000005556862 electrons
E(X)               :      -85.906736287340 Eh       
E(C)               :       -1.895157470420 Eh       
E(XC)              :      -87.801893757759 Eh       
DFET-embed. en.    :        0.000000000000 Eh       

---------------
SCF CONVERGENCE
---------------

  Last Energy change         ...    2.8656e-07  Tolerance :   1.0000e-06
  Last MAX-Density change    ...    5.4882e-04  Tolerance :   1.0000e-05
  Last RMS-Density change    ...    5.7656e-06  Tolerance :   1.0000e-06
  Last DIIS Error            ...    3.6038e-04  Tolerance :   1.0000e-06

             **** THE GBW FILE WAS UPDATED (39_CoCl.gbw) ****
             **** DENSITY FILE WAS UPDATED (39_CoCl.scfp) ****
             **** ENERGY FILE WAS UPDATED (39_CoCl.en.tmp) ****
----------------------
UHF SPIN CONTAMINATION
----------------------

Warning: in a DFT calculation there is little theoretical justification to 
         calculate <S**2> as in Hartree-Fock theory. We will do it anyways
         but you should keep in mind that the values have only limited relevance

Expectation value of <S**2>     :     2.151572
Ideal value S*(S+1) for S=1.0   :     2.000000
Deviation                       :     0.151572

             **** THE GBW FILE WAS UPDATED (39_CoCl.gbw) ****
             **** DENSITY FILE WAS UPDATED (39_CoCl.scfp) ****
----------------
ORBITAL ENERGIES
----------------
                 SPIN UP ORBITALS
  NO   OCC          E(Eh)            E(eV) 
   0   1.0000    -277.055885     -7539.0739 
   1   1.0000    -101.251248     -2755.1865 
   2   1.0000     -32.583234      -886.6349 
   3   1.0000     -28.270780      -769.2870 
   4   1.0000     -28.239449      -768.4345 
   5   1.0000     -28.239449      -768.4345 
   6   1.0000      -9.304647      -253.1923 
   7   1.0000      -7.061220      -192.1456 
   8   1.0000      -7.058422      -192.0694 
   9   1.0000      -7.058422      -192.0694 
  10   1.0000      -3.713051      -101.0373 
  11   1.0000      -2.440474       -66.4087 
  12   1.0000      -2.357443       -64.1493 
  13   1.0000      -2.357443       -64.1493 
  14   1.0000      -0.740632       -20.1536 
  15   1.0000      -0.333355        -9.0711 
  16   1.0000      -0.318131        -8.6568 
  17   1.0000      -0.318131        -8.6568 
  18   1.0000      -0.255171        -6.9435 
  19   1.0000      -0.255171        -6.9435 
  20   1.0000      -0.207816        -5.6550 
  21   1.0000      -0.199447        -5.4272 
  22   1.0000      -0.199443        -5.4271 
  23   0.0000      -0.136265        -3.7079 
  24   0.0000      -0.023033        -0.6268 
  25   0.0000      -0.023033        -0.6268 
  26   0.0000       0.013166         0.3583 
  27   0.0000       0.019956         0.5430 
  28   0.0000       0.039342         1.0705 
  29   0.0000       0.039342         1.0705 
  30   0.0000       0.076493         2.0815 
  31   0.0000       0.084434         2.2976 
  32   0.0000       0.085574         2.3286 
  33   0.0000       0.085578         2.3287 
  34   0.0000       0.095311         2.5936 
  35   0.0000       0.095311         2.5936 
  36   0.0000       0.123593         3.3631 
  37   0.0000       0.137421         3.7394 
  38   0.0000       0.137421         3.7394 
  39   0.0000       0.148814         4.0494 
  40   0.0000       0.212285         5.7766 
  41   0.0000       0.212285         5.7766 
  42   0.0000       0.230390         6.2692 
  43   0.0000       0.262372         7.1395 
  44   0.0000       0.262728         7.1492 
  45   0.0000       0.274338         7.4651 
  46   0.0000       0.298104         8.1118 
  47   0.0000       0.298104         8.1118 
  48   0.0000       0.332492         9.0476 
  49   0.0000       0.332560         9.0494 
  50   0.0000       0.361897         9.8477 
  51   0.0000       0.408031        11.1031 
  52   0.0000       0.408031        11.1031 
  53   0.0000       0.469373        12.7723 
  54   0.0000       0.557969        15.1831 
  55   0.0000       0.597124        16.2486 
  56   0.0000       0.597124        16.2486 
  57   0.0000       0.732582        19.9346 
  58   0.0000       0.767781        20.8924 
  59   0.0000       0.768771        20.9193 
  60   0.0000       0.777215        21.1491 
  61   0.0000       0.777215        21.1491 
  62   0.0000       0.843354        22.9488 
  63   0.0000       0.851411        23.1681 
  64   0.0000       0.851411        23.1681 
  65   0.0000       0.933095        25.3908 
  66   0.0000       0.933334        25.3973 
  67   0.0000       0.953751        25.9529 
  68   0.0000       0.972982        26.4762 
  69   0.0000       0.972982        26.4762 
  70   0.0000       1.105435        30.0804 
  71   0.0000       1.105435        30.0804 
  72   0.0000       1.119005        30.4497 
  73   0.0000       1.119005        30.4497 
  74   0.0000       1.185522        32.2597 
  75   0.0000       1.228345        33.4250 
  76   0.0000       1.235243        33.6127 
  77   0.0000       1.235243        33.6127 
  78   0.0000       1.245215        33.8840 
  79   0.0000       1.245298        33.8863 
  80   0.0000       1.345923        36.6244 
  81   0.0000       1.346253        36.6334 
  82   0.0000       1.529983        41.6330 
  83   0.0000       1.718201        46.7546 
  84   0.0000       1.718201        46.7546 
  85   0.0000       2.015979        54.8576 
  86   0.0000       2.274387        61.8892 
  87   0.0000       2.274746        61.8990 
  88   0.0000       2.397979        65.2523 
  89   0.0000       2.397979        65.2523 
  90   0.0000       2.474009        67.3212 
  91   0.0000       2.482522        67.5529 
  92   0.0000       2.482522        67.5529 
  93   0.0000       2.834480        77.1301 
  94   0.0000       2.834480        77.1301 
  95   0.0000       2.875616        78.2495 
  96   0.0000       2.876291        78.2679 
  97   0.0000       2.903380        79.0050 
  98   0.0000       2.917757        79.3962 
  99   0.0000       2.917757        79.3962 
 100   0.0000       2.977935        81.0337 
 101   0.0000       3.200616        87.0932 
 102   0.0000       3.200616        87.0932 
 103   0.0000       3.203973        87.1845 
 104   0.0000       3.204173        87.1900 
 105   0.0000       3.246061        88.3298 
 106   0.0000       3.304961        89.9326 
 107   0.0000       3.304961        89.9326 
 108   0.0000       3.434340        93.4531 
 109   0.0000       3.434340        93.4531 
 110   0.0000       3.456742        94.0627 
 111   0.0000       3.851646       104.8086 
 112   0.0000       4.059329       110.4600 
 113   0.0000       4.059329       110.4600 
 114   0.0000       4.089852       111.2905 
 115   0.0000       4.089933       111.2927 
 116   0.0000       4.090893       111.3189 
 117   0.0000       4.090898       111.3190 
 118   0.0000       4.262980       116.0016 
 119   0.0000       4.262980       116.0016 
 120   0.0000       4.427286       120.4726 
 121   0.0000       5.169466       140.6683 
 122   0.0000       5.169513       140.6696 
 123   0.0000       5.319041       144.7385 
 124   0.0000       5.319041       144.7385 
 125   0.0000       6.054061       164.7394 
 126   0.0000       6.536512       177.8675 
 127   0.0000      10.473999       285.0120 
 128   0.0000      10.474217       285.0179 
 129   0.0000      10.534070       286.6466 
 130   0.0000      10.534070       286.6466 
 131   0.0000      10.546654       286.9890 
 132   0.0000      10.546654       286.9890 
 133   0.0000      10.604140       288.5533 
 134   0.0000      11.648665       316.9763 
 135   0.0000      11.648665       316.9763 
 136   0.0000      11.659326       317.2664 
 137   0.0000      11.659331       317.2665 
 138   0.0000      11.724179       319.0311 
 139   0.0000      11.724314       319.0348 
 140   0.0000      11.749714       319.7260 
 141   0.0000      11.749714       319.7260 
 142   0.0000      11.877491       323.2030 

                 SPIN DOWN ORBITALS
  NO   OCC          E(Eh)            E(eV) 
   0   1.0000    -277.052403     -7538.9792 
   1   1.0000    -101.251065     -2755.1816 
   2   1.0000     -32.541217      -885.4915 
   3   1.0000     -28.236812      -768.3627 
   4   1.0000     -28.211854      -767.6836 
   5   1.0000     -28.211854      -767.6836 
   6   1.0000      -9.305115      -253.2050 
   7   1.0000      -7.062153      -192.1709 
   8   1.0000      -7.057808      -192.0527 
   9   1.0000      -7.057808      -192.0527 
  10   1.0000      -3.603512       -98.0566 
  11   1.0000      -2.289411       -62.2980 
  12   1.0000      -2.282542       -62.1111 
  13   1.0000      -2.282542       -62.1111 
  14   1.0000      -0.740896       -20.1608 
  15   1.0000      -0.343243        -9.3401 
  16   1.0000      -0.279265        -7.5992 
  17   1.0000      -0.279265        -7.5992 
  18   1.0000      -0.223930        -6.0935 
  19   1.0000      -0.165377        -4.5001 
  20   1.0000      -0.164982        -4.4894 
  21   0.0000      -0.112639        -3.0651 
  22   0.0000      -0.102316        -2.7842 
  23   0.0000      -0.102316        -2.7842 
  24   0.0000      -0.004487        -0.1221 
  25   0.0000      -0.004487        -0.1221 
  26   0.0000       0.016305         0.4437 
  27   0.0000       0.021208         0.5771 
  28   0.0000       0.046022         1.2523 
  29   0.0000       0.046022         1.2523 
  30   0.0000       0.078937         2.1480 
  31   0.0000       0.081058         2.2057 
  32   0.0000       0.081065         2.2059 
  33   0.0000       0.085692         2.3318 
  34   0.0000       0.095549         2.6000 
  35   0.0000       0.095549         2.6000 
  36   0.0000       0.126529         3.4430 
  37   0.0000       0.138758         3.7758 
  38   0.0000       0.138758         3.7758 
  39   0.0000       0.144655         3.9363 
  40   0.0000       0.211274         5.7491 
  41   0.0000       0.211275         5.7491 
  42   0.0000       0.243244         6.6190 
  43   0.0000       0.264796         7.2055 
  44   0.0000       0.265172         7.2157 
  45   0.0000       0.274333         7.4650 
  46   0.0000       0.318940         8.6788 
  47   0.0000       0.318940         8.6788 
  48   0.0000       0.341600         9.2954 
  49   0.0000       0.341784         9.3004 
  50   0.0000       0.363920         9.9028 
  51   0.0000       0.410713        11.1761 
  52   0.0000       0.410713        11.1761 
  53   0.0000       0.476295        12.9606 
  54   0.0000       0.582695        15.8559 
  55   0.0000       0.601800        16.3758 
  56   0.0000       0.601800        16.3758 
  57   0.0000       0.739870        20.1329 
  58   0.0000       0.771733        20.9999 
  59   0.0000       0.772531        21.0216 
  60   0.0000       0.783236        21.3129 
  61   0.0000       0.783236        21.3129 
  62   0.0000       0.847554        23.0631 
  63   0.0000       0.865629        23.5550 
  64   0.0000       0.865629        23.5550 
  65   0.0000       0.949933        25.8490 
  66   0.0000       0.951097        25.8807 
  67   0.0000       0.970601        26.4114 
  68   0.0000       0.983693        26.7677 
  69   0.0000       0.983693        26.7677 
  70   0.0000       1.116203        30.3734 
  71   0.0000       1.116203        30.3734 
  72   0.0000       1.153141        31.3786 
  73   0.0000       1.153141        31.3786 
  74   0.0000       1.186314        32.2813 
  75   0.0000       1.231913        33.5221 
  76   0.0000       1.264890        34.4194 
  77   0.0000       1.264891        34.4194 
  78   0.0000       1.266813        34.4717 
  79   0.0000       1.266855        34.4729 
  80   0.0000       1.360791        37.0290 
  81   0.0000       1.361560        37.0499 
  82   0.0000       1.535789        41.7909 
  83   0.0000       1.752030        47.6752 
  84   0.0000       1.752030        47.6752 
  85   0.0000       2.032763        55.3143 
  86   0.0000       2.284767        62.1717 
  87   0.0000       2.285075        62.1800 
  88   0.0000       2.405992        65.4704 
  89   0.0000       2.405992        65.4704 
  90   0.0000       2.469905        67.2095 
  91   0.0000       2.488049        67.7033 
  92   0.0000       2.488049        67.7033 
  93   0.0000       2.848658        77.5159 
  94   0.0000       2.848658        77.5159 
  95   0.0000       2.888139        78.5903 
  96   0.0000       2.888469        78.5992 
  97   0.0000       2.917409        79.3867 
  98   0.0000       2.928620        79.6918 
  99   0.0000       2.928620        79.6918 
 100   0.0000       3.002410        81.6997 
 101   0.0000       3.220599        87.6370 
 102   0.0000       3.220599        87.6370 
 103   0.0000       3.268241        88.9334 
 104   0.0000       3.282171        89.3124 
 105   0.0000       3.282318        89.3164 
 106   0.0000       3.358465        91.3885 
 107   0.0000       3.358465        91.3885 
 108   0.0000       3.429909        93.3326 
 109   0.0000       3.429909        93.3326 
 110   0.0000       3.468589        94.3851 
 111   0.0000       3.882464       105.6472 
 112   0.0000       4.106000       111.7299 
 113   0.0000       4.106000       111.7299 
 114   0.0000       4.114490       111.9610 
 115   0.0000       4.115038       111.9759 
 116   0.0000       4.149069       112.9019 
 117   0.0000       4.149205       112.9056 
 118   0.0000       4.310432       117.2928 
 119   0.0000       4.310432       117.2928 
 120   0.0000       4.423021       120.3565 
 121   0.0000       5.171311       140.7185 
 122   0.0000       5.171657       140.7279 
 123   0.0000       5.434669       147.8849 
 124   0.0000       5.434669       147.8849 
 125   0.0000       6.070040       165.1742 
 126   0.0000       6.526293       177.5895 
 127   0.0000      10.551448       287.1195 
 128   0.0000      10.551448       287.1195 
 129   0.0000      10.603958       288.5484 
 130   0.0000      10.603958       288.5484 
 131   0.0000      10.605504       288.5904 
 132   0.0000      10.608613       288.6750 
 133   0.0000      10.619795       288.9793 
 134   0.0000      11.697425       318.3031 
 135   0.0000      11.697425       318.3031 
 136   0.0000      11.707911       318.5884 
 137   0.0000      11.708613       318.6076 
 138   0.0000      11.712068       318.7016 
 139   0.0000      11.712316       318.7083 
 140   0.0000      11.712316       318.7083 
 141   0.0000      11.713123       318.7303 
 142   0.0000      11.924372       324.4786 

                    ********************************
                    * MULLIKEN POPULATION ANALYSIS *
                    ********************************

--------------------------------------------
MULLIKEN ATOMIC CHARGES AND SPIN POPULATIONS
--------------------------------------------
   0 Co:    0.418323    2.011093
   1 Cl:   -0.418323   -0.011093
Sum of atomic charges         :   -0.0000000
Sum of atomic spin populations:    2.0000000

-----------------------------------------------------
MULLIKEN REDUCED ORBITAL CHARGES AND SPIN POPULATIONS
-----------------------------------------------------
CHARGE
  0 Cos       :     6.562960  s :     6.562960
      pz      :     4.080623  p :    12.170437
      px      :     4.044907
      py      :     4.044907
      dz2     :     1.744272  d :     7.834381
      dxz     :     1.047257
      dyz     :     1.047257
      dx2y2   :     1.997814
      dxy     :     1.997781
      f0      :     0.005454  f :     0.013080
      f+1     :     0.003721
      f-1     :     0.003721
      f+2     :     0.000092
      f-2     :     0.000092
      f+3     :     0.000000
      f-3     :     0.000000
      g0      :     0.000442  g :     0.000820
      g+1     :     0.000134
      g-1     :     0.000134
      g+2     :     0.000056
      g-2     :     0.000055
      g+3     :     0.000000
      g-3     :     0.000000
      g+4     :     0.000000
      g-4     :     0.000000
  1 Cls       :     5.957301  s :     5.957301
      pz      :     3.639327  p :    11.428699
      px      :     3.894686
      py      :     3.894686
      dz2     :     0.009221  d :     0.028083
      dxz     :     0.007995
      dyz     :     0.007995
      dx2y2   :     0.001427
      dxy     :     0.001444
      f0      :     0.000401  f :     0.004240
      f+1     :     0.001300
      f-1     :     0.001300
      f+2     :     0.000611
      f-2     :     0.000629
      f+3     :     0.000000
      f-3     :     0.000000

SPIN
  0 Cos       :     0.287832  s :     0.287832
      pz      :     0.006577  p :     0.029444
      px      :     0.011433
      py      :     0.011433
      dz2     :    -0.191811  d :     1.692631
      dxz     :     0.942014
      dyz     :     0.942014
      dx2y2   :     0.000174
      dxy     :     0.000240
      f0      :     0.000105  f :     0.001247
      f+1     :     0.000502
      f-1     :     0.000502
      f+2     :     0.000069
      f-2     :     0.000069
      f+3     :    -0.000000
      f-3     :    -0.000000
      g0      :    -0.000159  g :    -0.000060
      g+1     :     0.000014
      g-1     :     0.000014
      g+2     :     0.000035
      g-2     :     0.000036
      g+3     :    -0.000000
      g-3     :    -0.000000
      g+4     :    -0.000000
      g-4     :     0.000000
  1 Cls       :    -0.001415  s :    -0.001415
      pz      :    -0.100032  p :    -0.011183
      px      :     0.044424
      py      :     0.044424
      dz2     :    -0.001190  d :     0.001020
      dxz     :     0.001429
      dyz     :     0.001429
      dx2y2   :    -0.000306
      dxy     :    -0.000342
      f0      :     0.000093  f :     0.000485
      f+1     :     0.000184
      f-1     :     0.000184
      f+2     :     0.000027
      f-2     :    -0.000003
      f+3     :     0.000000
      f-3     :     0.000000


                     *******************************
                     * LOEWDIN POPULATION ANALYSIS *
                     *******************************

-------------------------------------------
LOEWDIN ATOMIC CHARGES AND SPIN POPULATIONS
-------------------------------------------
   0 Co:    0.016572    1.900638
   1 Cl:   -0.016572    0.099362

----------------------------------------------------
LOEWDIN REDUCED ORBITAL CHARGES AND SPIN POPULATIONS
----------------------------------------------------
CHARGE
  0 Cos       :     6.486720  s :     6.486720
      pz      :     4.207071  p :    12.352688
      px      :     4.072809
      py      :     4.072809
      dz2     :     1.849617  d :     8.039589
      dxz     :     1.105210
      dyz     :     1.105210
      dx2y2   :     1.989784
      dxy     :     1.989769
      f0      :     0.044264  f :     0.101735
      f+1     :     0.028469
      f-1     :     0.028469
      f+2     :     0.000267
      f-2     :     0.000267
      f+3     :     0.000000
      f-3     :     0.000000
      g0      :     0.001427  g :     0.002696
      g+1     :     0.000580
      g-1     :     0.000580
      g+2     :     0.000054
      g-2     :     0.000054
      g+3     :     0.000000
      g-3     :     0.000000
      g+4     :     0.000000
      g-4     :     0.000000
  1 Cls       :     5.618345  s :     5.618345
      pz      :     3.639264  p :    11.139807
      px      :     3.750272
      py      :     3.750272
      dz2     :     0.105030  d :     0.164319
      dxz     :     0.024545
      dyz     :     0.024545
      dx2y2   :     0.005097
      dxy     :     0.005103
      f0      :     0.048263  f :     0.094102
      f+1     :     0.018116
      f-1     :     0.018116
      f+2     :     0.004798
      f-2     :     0.004807
      f+3     :     0.000000
      f-3     :     0.000000

SPIN
  0 Cos       :     0.235244  s :     0.235244
      pz      :    -0.019690  p :     0.018210
      px      :     0.018950
      py      :     0.018950
      dz2     :    -0.188236  d :     1.644205
      dxz     :     0.915931
      dyz     :     0.915931
      dx2y2   :     0.000268
      dxy     :     0.000310
      f0      :    -0.001619  f :     0.003095
      f+1     :     0.002218
      f-1     :     0.002218
      f+2     :     0.000139
      f-2     :     0.000138
      f+3     :    -0.000000
      f-3     :    -0.000000
      g0      :    -0.000215  g :    -0.000115
      g+1     :     0.000027
      g-1     :     0.000027
      g+2     :     0.000023
      g-2     :     0.000023
      g+3     :    -0.000000
      g-3     :    -0.000000
      g+4     :    -0.000000
      g-4     :     0.000000
  1 Cls       :     0.010207  s :     0.010207
      pz      :    -0.032728  p :     0.046359
      px      :     0.039544
      py      :     0.039544
      dz2     :    -0.000743  d :     0.023530
      dxz     :     0.012532
      dyz     :     0.012532
      dx2y2   :    -0.000382
      dxy     :    -0.000408
      f0      :    -0.002219  f :     0.019265
      f+1     :     0.010798
      f-1     :     0.010798
      f+2     :    -0.000048
      f-2     :    -0.000064
      f+3     :     0.000000
      f-3     :     0.000000


                      *****************************
                      * MAYER POPULATION ANALYSIS *
                      *****************************

  NA   - Mulliken gross atomic population
  ZA   - Total nuclear charge
  QA   - Mulliken gross atomic charge
  VA   - Mayer's total valence
  BVA  - Mayer's bonded valence
  FA   - Mayer's free valence

  ATOM       NA         ZA         QA         VA         BVA        FA
  0 Co    26.5817    27.0000     0.4183     3.2845     1.2030     2.0815
  1 Cl    17.4183    17.0000    -0.4183     1.2223     1.2030     0.0193

  Mayer bond orders larger than 0.100000
B(  0-Co,  1-Cl) :   1.2030 

-------
TIMINGS
-------

Total SCF time: 0 days 0 hours 0 min 7 sec 

Total time                  ....       7.184 sec
Sum of individual times     ....       7.002 sec  ( 97.5%)

Fock matrix formation       ....       6.446 sec  ( 89.7%)
  Split-RI-J                ....       4.779 sec  ( 74.1% of F)
  XC integration            ....       1.478 sec  ( 22.9% of F)
    Basis function eval.    ....       0.186 sec  ( 12.6% of XC)
    Density eval.           ....       0.200 sec  ( 13.5% of XC)
    XC-Functional eval.     ....       0.039 sec  (  2.6% of XC)
    XC-Potential eval.      ....       0.575 sec  ( 38.9% of XC)
Diagonalization             ....       0.193 sec  (  2.7%)
Density matrix formation    ....       0.024 sec  (  0.3%)
Population analysis         ....       0.007 sec  (  0.1%)
Initial guess               ....       0.101 sec  (  1.4%)
Orbital Transformation      ....       0.000 sec  (  0.0%)
Orbital Orthonormalization  ....       0.000 sec  (  0.0%)
DIIS solution               ....       0.069 sec  (  1.0%)
Grid generation             ....       0.162 sec  (  2.3%)


-------------------------------------------------------------------------------
                          DFT DISPERSION CORRECTION                            
                                                                               
                              DFTD3 V3.1  Rev 1                                
                          USING Becke-Johnson damping                          
-------------------------------------------------------------------------------
The SCAN functional is recognized
Active option DFTDOPT                   ...         4   

molecular C6(AA) [au] = 587.026616 


            DFT-D V3
 parameters
 s6 scaling factor         :     1.0000 
 a1 scaling factor         :     0.5380 
 s8 scaling factor         :     0.0000 
 a2 scaling factor         :     5.4200 
 ad hoc parameters k1-k3   :    16.0000     1.3333    -4.0000 

 Edisp/kcal,au: -0.108435615654  -0.000172803135 
 E6   /kcal   :  -0.108435616 
 E8   /kcal   :  -0.000000000 
 % E8         :   0.000000000 

-------------------------   ----------------
Dispersion correction           -0.000172803
-------------------------   ----------------


-------------------------   --------------------
FINAL SINGLE POINT ENERGY     -1843.144142574259
-------------------------   --------------------


                            ***************************************
                            *     ORCA property calculations      *
                            ***************************************

                                    ---------------------
                                    Active property flags
                                    ---------------------
   (+) Dipole Moment


------------------------------------------------------------------------------
                       ORCA ELECTRIC PROPERTIES CALCULATION
------------------------------------------------------------------------------

Dipole Moment Calculation                       ... on
Quadrupole Moment Calculation                   ... off
Polarizability Calculation                      ... off
GBWName                                         ... 39_CoCl.gbw
Electron density file                           ... 39_CoCl.scfp
The origin for moment calculation is the CENTER OF MASS  = ( 0.000000,  0.000000  1.398559)

-------------
DIPOLE MOMENT
-------------
                                X             Y             Z
Electronic contribution:     -0.00000      -0.00000      -3.61277
Nuclear contribution   :      0.00000       0.00000       1.86529
                        -----------------------------------------
Total Dipole Moment    :     -0.00000      -0.00000      -1.74748
                        -----------------------------------------
Magnitude (a.u.)       :      1.74748
Magnitude (Debye)      :      4.44174



--------------------
Rotational spectrum 
--------------------
 
Rotational constants in cm-1:     0.000000     0.174373     0.174373 
Rotational constants in MHz :     0.000000  5227.567081  5227.567081 

 Dipole components along the rotational axes: 
x,y,z [a.u.] :    -1.747479    -0.000000    -0.000000 
x,y,z [Debye]:    -4.441738    -0.000000    -0.000000 

 

Timings for individual modules:

Sum of individual times         ...       10.695 sec (=   0.178 min)
GTO integral calculation        ...        3.036 sec (=   0.051 min)  28.4 %
SCF iterations                  ...        7.660 sec (=   0.128 min)  71.6 %
                             ****ORCA TERMINATED NORMALLY****
TOTAL RUN TIME: 0 days 0 hours 0 minutes 11 seconds 265 msec
