
                                 *****************
                                 * O   R   C   A *
                                 *****************

           --- An Ab Initio, DFT and Semiempirical electronic structure package ---

                  #######################################################
                  #                        -***-                        #
                  #          Department of theory and spectroscopy      #
                  #               Directorship: Frank Neese             #
                  #        Max Planck Institute fuer Kohlenforschung    #
                  #                Kaiser Wilhelm Platz 1               #
                  #                 D-45470 Muelheim/Ruhr               #
                  #                      Germany                        #
                  #                                                     #
                  #                  All rights reserved                #
                  #                        -***-                        #
                  #######################################################


                         Program Version 4.2.0 -  RELEASE  -


 With contributions from (in alphabetic order):
   Daniel Aravena         : Magnetic Suceptibility
   Michael Atanasov       : Ab Initio Ligand Field Theory (pilot matlab implementation)
   Alexander A. Auer      : GIAO ZORA, VPT2
   Ute Becker             : Parallelization
   Giovanni Bistoni       : ED, misc. LED, open-shell LED, HFLED
   Martin Brehm           : Molecular dynamics
   Dmytro Bykov           : SCF Hessian
   Vijay G. Chilkuri      : MRCI spin determinant printing, contributions to CSF-ICE
   Dipayan Datta          : RHF DLPNO-CCSD density
   Achintya Kumar Dutta   : EOM-CC, STEOM-CC
   Dmitry Ganyushin       : Spin-Orbit,Spin-Spin,Magnetic field MRCI
   Miquel Garcia          : C-PCM Hessian, Gaussian charge scheme
   Yang Guo               : DLPNO-NEVPT2, CIM, IAO-localization
   Andreas Hansen         : Spin unrestricted coupled pair/coupled cluster methods
   Benjamin Helmich-Paris : CASSCF linear response (MC-RPA)
   Lee Huntington         : MR-EOM, pCC
   Robert Izsak           : Overlap fitted RIJCOSX, COSX-SCS-MP3, EOM
   Christian Kollmar      : KDIIS, OOCD, Brueckner-CCSD(T), CCSD density
   Simone Kossmann        : Meta GGA functionals, TD-DFT gradient, OOMP2, MP2 Hessian
   Martin Krupicka        : AUTO-CI
   Lucas Lang             : DCDCAS
   Dagmar Lenk            : GEPOL surface, SMD
   Dimitrios Liakos       : Extrapolation schemes; Compound Job, initial MDCI parallelization
   Dimitrios Manganas     : Further ROCIS development; embedding schemes
   Dimitrios Pantazis     : SARC Basis sets
   Taras Petrenko         : DFT Hessian,TD-DFT gradient, ASA, ECA, R-Raman, ABS, FL, XAS/XES, NRVS
   Peter Pinski           : DLPNO-MP2, DLPNO-MP2 Gradient
   Christoph Reimann      : Effective Core Potentials
   Marius Retegan         : Local ZFS, SOC
   Christoph Riplinger    : Optimizer, TS searches, QM/MM, DLPNO-CCSD(T), (RO)-DLPNO pert. Triples
   Tobias Risthaus        : Range-separated hybrids, TD-DFT gradient, RPA, STAB
   Michael Roemelt        : Original ROCIS implementation
   Masaaki Saitow         : Open-shell DLPNO-CCSD energy and density
   Barbara Sandhoefer     : DKH picture change effects
   Avijit Sen             : IP-ROCIS
   Kantharuban Sivalingam : CASSCF convergence, NEVPT2, FIC-MRCI
   Bernardo de Souza      : ESD, SOC TD-DFT
   Georgi Stoychev        : AutoAux, RI-MP2 NMR
   Willem Van den Heuvel  : Paramagnetic NMR
   Boris Wezisla          : Elementary symmetry handling
   Frank Wennmohs         : Technical directorship


 We gratefully acknowledge several colleagues who have allowed us to
 interface, adapt or use parts of their codes:
   Stefan Grimme, W. Hujo, H. Kruse,             : VdW corrections, initial TS optimization,
                  C. Bannwarth                     DFT functionals, gCP, sTDA/sTD-DF
   Ed Valeev, F. Pavosevic, A. Kumar             : LibInt (2-el integral package), F12 methods
   Garnet Chan, S. Sharma, J. Yang, R. Olivares  : DMRG
   Ulf Ekstrom                                   : XCFun DFT Library
   Mihaly Kallay                                 : mrcc  (arbitrary order and MRCC methods)
   Andreas Klamt, Michael Diedenhofen            : otool_cosmo (COSMO solvation model)
   Jiri Pittner, Ondrej Demel                    : Mk-CCSD
   Frank Weinhold                                : gennbo (NPA and NBO analysis)
   Christopher J. Cramer and Donald G. Truhlar   : smd solvation model
   Lars Goerigk                                  : TD-DFT with DH, B97 family of functionals
   V. Asgeirsson, H. Jonsson                     : NEB implementation
   FAccTs GmbH                                   : IRC, NEB, NEB-TS, Multilevel, MM, QM/MM, CI optimization
   S Lehtola, MJT Oliveira, MAL Marques          : LibXC Library


 Your calculation uses the libint2 library for the computation of 2-el integrals
 For citations please refer to: http://libint.valeyev.net

 Your ORCA version has been built with support for libXC version: 4.2.3
 For citations please refer to: https://tddft.org/programs/libxc/

 This ORCA versions uses:
   CBLAS   interface :  Fast vector & matrix operations
   LAPACKE interface :  Fast linear algebra routines
   SCALAPACK package :  Parallel linear algebra routines


Your calculation utilizes the atom-pairwise dispersion correction
with the Becke-Johnson damping scheme (D3BJ)
Cite in your paper:
S.Grimme, S.Ehrlich, L.Goerigk, J Comput Chem, (2011), 32, 1456–1465 
S.Grimme, J.Antony, S.Ehrlich and H.Krieg, J.Chem.Phys., 132, (2010), 154104 
   

----- Orbital basis set information -----
Your calculation utilizes the basis: aug-cc-pVTZ 
    H, B-Ne : Obtained from the ccRepo (grant-hill.group.shef.ac.uk/ccrepo) Feb. 2017
              R. A. Kendall, T. H. Dunning, Jr., R. J. Harrison, J. Chem. Phys. 96, 6796 (1992)
         He : Obtained from the ccRepo (grant-hill.group.shef.ac.uk/ccrepo) Feb. 2017
              D. E. Woon, T. H. Dunning, Jr., J. Chem. Phys. 100, 2975 (1994)
  Li-Be, Na : Obtained from the ccRepo (grant-hill.group.shef.ac.uk/ccrepo) Feb. 2017
              B. P. Prascher, D. E. Woon, K. A. Peterson, T. H. Dunning, Jr., A. K. Wilson, Theor. Chem. Acc. 128, 69 (2011)
         Mg : Obtained from the Peterson Research Group Website (tyr0.chem.wsu.edu/~kipeters) Feb. 2017
              B. P. Prascher, D. E. Woon, K. A. Peterson, T. H. Dunning, Jr., A. K. Wilson, Theor. Chem. Acc. 128, 69 (2011)
      Al-Ar : Obtained from the ccRepo (grant-hill.group.shef.ac.uk/ccrepo) Feb. 2017
              D. E. Woon, T. H. Dunning, Jr., J. Chem. Phys. 98, 1358 (1993)
      Sc-Zn : Obtained from the ccRepo (grant-hill.group.shef.ac.uk/ccrepo) Feb. 2017
              N. B. Balabanov, K. A. Peterson, J. Chem. Phys. 123, 064107 (2005)
              N. B. Balabanov, K. A. Peterson, J. Chem. Phys. 125, 074110 (2006)
      Ga-Kr : Obtained from the ccRepo (grant-hill.group.shef.ac.uk/ccrepo) Feb. 2017
              A. K. Wilson, D. E. Woon, K. A. Peterson, T. H. Dunning, Jr., J. Chem. Phys. 110, 7667 (1999)
     Ag, Au : Obtained from the Peterson Research Group Website (tyr0.chem.wsu.edu/~kipeters) Feb. 2017
              K. A. Peterson, C. Puzzarini, Theor. Chem. Acc. 114, 283 (2005)

----- AuxJ basis set information -----
Your calculation utilizes the auxiliary basis: def2/J
   F. Weigend, Phys. Chem. Chem. Phys. 8, 1057 (2006).

================================================================================
                                        WARNINGS
                       Please study these warnings very carefully!
================================================================================


WARNING: your system is open-shell and RHF/RKS was chosen
  ===> : WILL SWITCH to UHF/UKS


WARNING: The SCAN functional is very grid-sensitive!
         Use at least GRID5 and a higher intacc

INFO   : the flag for use of LIBINT has been found!

================================================================================
                                       INPUT FILE
================================================================================
NAME = 48_NiS.in
|  1> #
|  2> # 48_NiS scanfunc/aug-cc-pvtz
|  3> #
|  4> ! scanfunc d3bj aug-cc-pvtz def2/j grid4 nofinalgrid
|  5> 
|  6> *xyz 0 3
|  7>   Ni  0.00000000000000      0.00000000000000      0.01491413562016
|  8>   S   0.00000000000000      0.00000000000000      1.98508586437984
|  9> *
| 10> 
| 11> %pal
| 12> nprocs 24
| 13> end
| 14> 
| 15> 
| 16>                          ****END OF INPUT****
================================================================================

                       ****************************
                       * Single Point Calculation *
                       ****************************

---------------------------------
CARTESIAN COORDINATES (ANGSTROEM)
---------------------------------
  Ni     0.000000    0.000000    0.014914
  S      0.000000    0.000000    1.985086

----------------------------
CARTESIAN COORDINATES (A.U.)
----------------------------
  NO LB      ZA    FRAG     MASS         X           Y           Z
   0 Ni   28.0000    0    58.700    0.000000    0.000000    0.028184
   1 S    16.0000    0    32.060    0.000000    0.000000    3.751269

--------------------------------
INTERNAL COORDINATES (ANGSTROEM)
--------------------------------
 Ni     0   0   0     0.000000000000     0.00000000     0.00000000
 S      1   0   0     1.970171728760     0.00000000     0.00000000

---------------------------
INTERNAL COORDINATES (A.U.)
---------------------------
 Ni     0   0   0     0.000000000000     0.00000000     0.00000000
 S      1   0   0     3.723085004150     0.00000000     0.00000000

---------------------
BASIS SET INFORMATION
---------------------
There are 2 groups of distinct atoms

 Group   1 Type Ni  : 116s77p23d3f2g contracted to 8s7p5d3f2g pattern {19191919191911/151515151511/77711/111/11}
 Group   2 Type S   : 42s17p3d2f contracted to 6s5p3d2f pattern {131313111/77111/111/11}

Atom   0Ni   basis set group =>   1
Atom   1S    basis set group =>   2
---------------------------------
AUXILIARY/J BASIS SET INFORMATION
---------------------------------
There are 2 groups of distinct atoms

 Group   1 Type Ni  : 19s5p5d3f3g contracted to 8s5p5d2f3g pattern {121111111/11111/11111/21/111}
 Group   2 Type S   : 14s5p5d2f1g contracted to 8s4p3d1f1g pattern {71111111/2111/311/2/1}

Atom   0Ni   basis set group =>   1
Atom   1S    basis set group =>   2


           ************************************************************
           *        Program running with 24 parallel MPI-processes    *
           *              working on a common directory               *
           ************************************************************
------------------------------------------------------------------------------
                           ORCA GTO INTEGRAL CALCULATION
                           -- RI-GTO INTEGRALS CHOSEN --
------------------------------------------------------------------------------

                         BASIS SET STATISTICS AND STARTUP INFO

Gaussian basis set:
 # of primitive gaussian shells          ...  285
 # of primitive gaussian functions       ...  623
 # of contracted shells                  ...   41
 # of contracted basis functions         ...  143
 Highest angular momentum                ...    4
 Maximum contraction depth               ...   19
Auxiliary gaussian basis set:
 # of primitive gaussian shells          ...   62
 # of primitive gaussian functions       ...  184
 # of contracted shells                  ...   40
 # of contracted aux-basis functions     ...  140
 Highest angular momentum                ...    4
 Maximum contraction depth               ...   12
Ratio of auxiliary to basis functions    ...  0.98
Integral package used                  ... LIBINT
 One Electron integrals                  ... done
 Ordering auxiliary basis shells         ... done
 Integral threshhold             Thresh  ...  1.000e-10
 Primitive cut-off               TCut    ...  1.000e-11
 Pre-screening matrix                    ... done
 Shell pair data                         ... 
 Ordering of the shell pairs             ... done (   0.000 sec) 861 of 861 pairs
 Determination of significant pairs      ... done (   0.000 sec)
 Creation of shell pair data             ... done (   0.001 sec)
 Storage of shell pair data              ... done (   0.069 sec)
 Shell pair data done in (   0.071 sec)
 Computing two index integrals           ... done
 Cholesky decomposition of the V-matrix  ... done


Timings:
 Total evaluation time                   ...   2.662 sec (  0.044 min)
 One electron matrix time                ...   0.047 sec (  0.001 min) =  1.7%
 Schwartz matrix evaluation time         ...   2.508 sec (  0.042 min) = 94.2%
 Two index repulsion integral time       ...   0.001 sec (  0.000 min) =  0.0%
 Cholesky decomposition of V             ...   0.001 sec (  0.000 min) =  0.0%
 Three index repulsion integral time     ...   0.000 sec (  0.000 min) =  0.0%



           ************************************************************
           *        Program running with 24 parallel MPI-processes    *
           *              working on a common directory               *
           ************************************************************
-------------------------------------------------------------------------------
                                 ORCA SCF
-------------------------------------------------------------------------------

------------
SCF SETTINGS
------------
Hamiltonian:
 Density Functional     Method          .... DFT(GTOs)
 Exchange Functional    Exchange        .... SCAN
 Correlation Functional Correlation     .... SCAN
 Gradients option       PostSCFGGA      .... off
   Density functional embedding theory  .... OFF
   NL short-range parameter             ....  6.400000
 RI-approximation to the Coulomb term is turned on
   Number of auxiliary basis functions  .... 140


General Settings:
 Integral files         IntName         .... 48_NiS
 Hartree-Fock type      HFTyp           .... UHF
 Total Charge           Charge          ....    0
 Multiplicity           Mult            ....    3
 Number of Electrons    NEL             ....   44
 Basis Dimension        Dim             ....  143
 Nuclear Repulsion      ENuc            ....    120.3303173311 Eh

Convergence Acceleration:
 DIIS                   CNVDIIS         .... on
   Start iteration      DIISMaxIt       ....    12
   Startup error        DIISStart       ....  0.200000
   # of expansion vecs  DIISMaxEq       ....     5
   Bias factor          DIISBfac        ....   1.050
   Max. coefficient     DIISMaxC        ....  10.000
 Newton-Raphson         CNVNR           .... off
 SOSCF                  CNVSOSCF        .... off
 Level Shifting         CNVShift        .... on
   Level shift para.    LevelShift      ....    0.2500
   Turn off err/grad.   ShiftErr        ....    0.0010
 Zerner damping         CNVZerner       .... off
 Static damping         CNVDamp         .... on
   Fraction old density DampFac         ....    0.7000
   Max. Damping (<1)    DampMax         ....    0.9800
   Min. Damping (>=0)   DampMin         ....    0.0000
   Turn off err/grad.   DampErr         ....    0.1000
 Fernandez-Rico         CNVRico         .... off

SCF Procedure:
 Maximum # iterations   MaxIter         ....   125
 SCF integral mode      SCFMode         .... Direct
   Integral package                     .... LIBINT
 Reset frequency        DirectResetFreq ....    20
 Integral Threshold     Thresh          ....  1.000e-10 Eh
 Primitive CutOff       TCut            ....  1.000e-11 Eh

Convergence Tolerance:
 Convergence Check Mode ConvCheckMode   .... Total+1el-Energy
 Convergence forced     ConvForced      .... 0
 Energy Change          TolE            ....  1.000e-06 Eh
 1-El. energy change                    ....  1.000e-03 Eh
 DIIS Error             TolErr          ....  1.000e-06


Diagonalization of the overlap matrix:
Smallest eigenvalue                        ... 1.255e-04
Time for diagonalization                   ...    0.006 sec
Threshold for overlap eigenvalues          ... 1.000e-08
Number of eigenvalues below threshold      ... 0
Time for construction of square roots      ...    0.003 sec
Total time needed                          ...    0.009 sec

-------------------
DFT GRID GENERATION
-------------------

General Integration Accuracy     IntAcc      ...  4.670
Radial Grid Type                 RadialGrid  ... Gauss-Chebyshev
Angular Grid (max. acc.)         AngularGrid ... Lebedev-302
Angular grid pruning method      GridPruning ... 3 (G Style)
Weight generation scheme         WeightScheme... Becke
Basis function cutoff            BFCut       ...    1.0000e-10
Integration weight cutoff        WCut        ...    1.0000e-14
Grids for H and He will be reduced by one unit

# of grid points (after initial pruning)     ...  16510 (   0.0 sec)
# of grid points (after weights+screening)   ...  16482 (   0.0 sec)
nearest neighbour list constructed           ...    0.0 sec
Grid point re-assignment to atoms done       ...    0.0 sec
Grid point division into batches done        ...    0.1 sec
Reduced shell lists constructed in    0.1 sec

Total number of grid points                  ...    16482
Total number of batches                      ...      258
Average number of points per batch           ...       63
Average number of grid points per atom       ...     8241
Average number of shells per batch           ...    15.83 (38.62%)
Average number of basis functions per batch  ...    40.00 (27.97%)
Average number of large shells per batch     ...     8.25 (52.11%)
Average number of large basis fcns per batch ...    20.08 (50.21%)
Maximum spatial batch extension              ...  23.02, 23.02, 16.62 au
Average spatial batch extension              ...   0.79,  0.78,  0.60 au

Time for grid setup =    0.165 sec

------------------------------
INITIAL GUESS: MODEL POTENTIAL
------------------------------
Loading Hartree-Fock densities                     ... done
Calculating cut-offs                               ... done
Setting up the integral package                    ... done
Initializing the effective Hamiltonian             ... done
Starting the Coulomb interaction                   ... done (   0.0 sec)
Reading the grid                                   ... done
Mapping shells                                     ... done
Starting the XC term evaluation                    ... done (   0.0 sec)
  promolecular density results
     # of electrons  =     44.000033645
     EX              =    -97.765655624
     EC              =     -0.778430687
     EX+EC           =    -98.544086311
Transforming the Hamiltonian                       ... done (   0.0 sec)
Diagonalizing the Hamiltonian                      ... done (   0.0 sec)
Back transforming the eigenvectors                 ... done (   0.0 sec)
Now organizing SCF variables                       ... done
                      ------------------
                      INITIAL GUESS DONE (   0.3 sec)
                      ------------------
--------------
SCF ITERATIONS
--------------
ITER       Energy         Delta-E        Max-DP      RMS-DP      [F,P]     Damp
               ***  Starting incremental Fock matrix formation  ***
  0  -1905.4309862528   0.00000000000024.97294350  0.19426865  1.3011463 0.7000
  1  -1904.9676802603   0.463305992479 7.32908339  0.05694633  0.4078286 0.7000
  2  -1905.7436108610  -0.775930600726 5.28567958  0.04116916  0.3917914 0.7000
  3  -1905.9844125455  -0.240801684465 3.70935073  0.02893092  0.3859312 0.7000
                               ***Turning on DIIS***
  4  -1906.2250897426  -0.240677197078 8.65357057  0.06745165  0.0621724 0.0000
  5  -1906.6831379844  -0.458048241847 0.02659269  0.00034579  0.1220913 0.7000
  6  -1906.7000204810  -0.016882496582 0.06266203  0.00124931  0.0648724 0.0000
  7  -1906.7041134665  -0.004092985499 0.06887310  0.00068784  0.0942025 0.0000
  8  -1906.7211507227  -0.017037256177 0.03819369  0.00036283  0.0422672 0.0000
  9  -1906.7221546984  -0.001003975734 0.01613584  0.00018409  0.0406006 0.0000
 10  -1906.7231234647  -0.000968766346 0.00758562  0.00011193  0.0340588 0.0000
 11  -1906.7240194310  -0.000895966228 0.00380766  0.00007133  0.0236884 0.0000
 12  -1906.7244787230  -0.000459292055 0.00661441  0.00012556  0.0176896 0.0000
 13  -1906.7247652097  -0.000286486680 0.00238991  0.00005381  0.0128229 0.0000
 14  -1906.7249175605  -0.000152350760 0.00349892  0.00003288  0.0025474 0.0000
 15  -1906.7249378847  -0.000020324253 0.00162873  0.00001691  0.0020651 0.0000
 16  -1906.7249480482  -0.000010163506 0.00088899  0.00001070  0.0019706 0.0000
 17  -1906.7249552530  -0.000007204789 0.00055015  0.00000735  0.0015574 0.0000
 18  -1906.7249601102  -0.000004857190 0.00051188  0.00000739  0.0010642 0.0000
 19  -1906.7249640199  -0.000003909734 0.00098526  0.00000981  0.0002113 0.0000
               *** Restarting incremental Fock matrix formation ***
                                   *** Resetting DIIS ***
 20  -1906.7249496034   0.000014416524 0.00174701  0.00002434  0.0006419 0.0000
 21  -1906.7249489485   0.000000654875 0.00045848  0.00000431  0.0012240 0.0000
 22  -1906.7249515942  -0.000002645692 0.00084178  0.00000822  0.0006375 0.0000
 23  -1906.7249505063   0.000001087969 0.00032361  0.00000282  0.0002847 0.0000
 24  -1906.7249512920  -0.000000785770 0.00008857  0.00000130  0.0001767 0.0000
 25  -1906.7249513312  -0.000000039214 0.00007282  0.00000108  0.0000153 0.0000
                 **** Energy Check signals convergence ****

               *****************************************************
               *                     SUCCESS                       *
               *           SCF CONVERGED AFTER  26 CYCLES          *
               *****************************************************


----------------
TOTAL SCF ENERGY
----------------

Total Energy       :        -1906.72495140 Eh          -51884.62369 eV

Components:
Nuclear Repulsion  :          120.33031733 Eh            3274.35440 eV
Electronic Energy  :        -2027.05526873 Eh          -55158.97809 eV
One Electron Energy:        -2886.34145281 Eh          -78541.34390 eV
Two Electron Energy:          859.28618407 Eh           23382.36581 eV

Virial components:
Potential Energy   :        -3810.00965440 Eh         -103675.63346 eV
Kinetic Energy     :         1903.28470300 Eh           51791.00977 eV
Virial Ratio       :            2.00180753


DFT components:
N(Alpha)           :       23.000006359331 electrons
N(Beta)            :       21.000004709918 electrons
N(Total)           :       44.000011069250 electrons
E(X)               :      -87.075232584346 Eh       
E(C)               :       -1.916851362196 Eh       
E(XC)              :      -88.992083946542 Eh       
DFET-embed. en.    :        0.000000000000 Eh       

---------------
SCF CONVERGENCE
---------------

  Last Energy change         ...   -7.2611e-08  Tolerance :   1.0000e-06
  Last MAX-Density change    ...    2.3198e-05  Tolerance :   1.0000e-05
  Last RMS-Density change    ...    3.3295e-07  Tolerance :   1.0000e-06
  Last DIIS Error            ...    2.4413e-05  Tolerance :   1.0000e-06

             **** THE GBW FILE WAS UPDATED (48_NiS.gbw) ****
             **** DENSITY FILE WAS UPDATED (48_NiS.scfp) ****
             **** ENERGY FILE WAS UPDATED (48_NiS.en.tmp) ****
----------------------
UHF SPIN CONTAMINATION
----------------------

Warning: in a DFT calculation there is little theoretical justification to 
         calculate <S**2> as in Hartree-Fock theory. We will do it anyways
         but you should keep in mind that the values have only limited relevance

Expectation value of <S**2>     :     2.009488
Ideal value S*(S+1) for S=1.0   :     2.000000
Deviation                       :     0.009488

             **** THE GBW FILE WAS UPDATED (48_NiS.gbw) ****
             **** DENSITY FILE WAS UPDATED (48_NiS.scfp) ****
----------------
ORBITAL ENERGIES
----------------
                 SPIN UP ORBITALS
  NO   OCC          E(Eh)            E(eV) 
   0   1.0000    -299.280695     -8143.8417 
   1   1.0000     -88.649797     -2412.2836 
   2   1.0000     -35.615006      -969.1336 
   3   1.0000     -31.006981      -843.7428 
   4   1.0000     -30.992814      -843.3573 
   5   1.0000     -30.992814      -843.3573 
   6   1.0000      -7.857046      -213.8011 
   7   1.0000      -5.795045      -157.6912 
   8   1.0000      -5.795045      -157.6912 
   9   1.0000      -5.790041      -157.5550 
  10   1.0000      -4.014161      -109.2309 
  11   1.0000      -2.625351       -71.4394 
  12   1.0000      -2.574029       -70.0429 
  13   1.0000      -2.574029       -70.0429 
  14   1.0000      -0.633967       -17.2511 
  15   1.0000      -0.321725        -8.7546 
  16   1.0000      -0.317586        -8.6420 
  17   1.0000      -0.317586        -8.6420 
  18   1.0000      -0.248541        -6.7631 
  19   1.0000      -0.248541        -6.7631 
  20   1.0000      -0.234201        -6.3729 
  21   1.0000      -0.222919        -6.0659 
  22   1.0000      -0.222919        -6.0659 
  23   0.0000      -0.128654        -3.5009 
  24   0.0000      -0.011298        -0.3074 
  25   0.0000      -0.011298        -0.3074 
  26   0.0000       0.015272         0.4156 
  27   0.0000       0.019600         0.5334 
  28   0.0000       0.039109         1.0642 
  29   0.0000       0.039109         1.0642 
  30   0.0000       0.072455         1.9716 
  31   0.0000       0.087277         2.3749 
  32   0.0000       0.088019         2.3951 
  33   0.0000       0.088025         2.3953 
  34   0.0000       0.098873         2.6905 
  35   0.0000       0.098873         2.6905 
  36   0.0000       0.121028         3.2933 
  37   0.0000       0.122323         3.3286 
  38   0.0000       0.122323         3.3286 
  39   0.0000       0.147693         4.0189 
  40   0.0000       0.205815         5.6005 
  41   0.0000       0.205815         5.6005 
  42   0.0000       0.210451         5.7267 
  43   0.0000       0.210473         5.7273 
  44   0.0000       0.235584         6.4106 
  45   0.0000       0.243288         6.6202 
  46   0.0000       0.291698         7.9375 
  47   0.0000       0.291698         7.9375 
  48   0.0000       0.340814         9.2740 
  49   0.0000       0.360992         9.8231 
  50   0.0000       0.361038         9.8243 
  51   0.0000       0.417172        11.3518 
  52   0.0000       0.417172        11.3518 
  53   0.0000       0.510620        13.8947 
  54   0.0000       0.510620        13.8947 
  55   0.0000       0.539594        14.6831 
  56   0.0000       0.567207        15.4345 
  57   0.0000       0.595842        16.2137 
  58   0.0000       0.595962        16.2170 
  59   0.0000       0.642856        17.4930 
  60   0.0000       0.642856        17.4930 
  61   0.0000       0.655314        17.8320 
  62   0.0000       0.725928        19.7535 
  63   0.0000       0.733306        19.9543 
  64   0.0000       0.733306        19.9543 
  65   0.0000       0.782656        21.2971 
  66   0.0000       0.782829        21.3019 
  67   0.0000       0.885739        24.1022 
  68   0.0000       0.885739        24.1022 
  69   0.0000       0.916364        24.9355 
  70   0.0000       1.001903        27.2632 
  71   0.0000       1.001903        27.2632 
  72   0.0000       1.181436        32.1485 
  73   0.0000       1.286632        35.0110 
  74   0.0000       1.286632        35.0110 
  75   0.0000       1.391382        37.8614 
  76   0.0000       1.391409        37.8622 
  77   0.0000       1.427539        38.8453 
  78   0.0000       1.431772        38.9605 
  79   0.0000       1.431772        38.9605 
  80   0.0000       1.451091        39.4862 
  81   0.0000       1.451418        39.4951 
  82   0.0000       1.501267        40.8516 
  83   0.0000       1.688306        45.9412 
  84   0.0000       1.688306        45.9412 
  85   0.0000       1.813490        49.3476 
  86   0.0000       1.813574        49.3498 
  87   0.0000       1.924055        52.3562 
  88   0.0000       1.924055        52.3562 
  89   0.0000       1.989162        54.1278 
  90   0.0000       2.125130        57.8277 
  91   0.0000       2.126632        57.8686 
  92   0.0000       2.126632        57.8686 
  93   0.0000       2.134174        58.0738 
  94   0.0000       2.134174        58.0738 
  95   0.0000       2.154335        58.6224 
  96   0.0000       2.155447        58.6527 
  97   0.0000       2.284929        62.1761 
  98   0.0000       2.448477        66.6265 
  99   0.0000       2.448477        66.6265 
 100   0.0000       3.143875        85.5492 
 101   0.0000       3.652781        99.3972 
 102   0.0000       3.864434       105.1566 
 103   0.0000       3.864434       105.1566 
 104   0.0000       3.906919       106.3127 
 105   0.0000       3.907048       106.3162 
 106   0.0000       3.959288       107.7377 
 107   0.0000       3.959288       107.7377 
 108   0.0000       4.034767       109.7916 
 109   0.0000       4.034767       109.7916 
 110   0.0000       4.088301       111.2483 
 111   0.0000       4.483502       122.0023 
 112   0.0000       4.929630       134.1420 
 113   0.0000       5.053049       137.5004 
 114   0.0000       5.053049       137.5004 
 115   0.0000       5.065975       137.8522 
 116   0.0000       5.066014       137.8532 
 117   0.0000       5.080310       138.2423 
 118   0.0000       5.080535       138.2484 
 119   0.0000       5.188525       141.1869 
 120   0.0000       5.188525       141.1869 
 121   0.0000       5.520985       150.2336 
 122   0.0000       5.625341       153.0733 
 123   0.0000       5.625349       153.0735 
 124   0.0000       5.846539       159.0924 
 125   0.0000       5.846539       159.0924 
 126   0.0000       6.979513       189.9222 
 127   0.0000      12.457924       338.9973 
 128   0.0000      12.458225       339.0055 
 129   0.0000      12.468573       339.2871 
 130   0.0000      12.468573       339.2871 
 131   0.0000      12.540015       341.2312 
 132   0.0000      12.540015       341.2312 
 133   0.0000      12.565666       341.9291 
 134   0.0000      14.131858       384.5474 
 135   0.0000      14.131858       384.5474 
 136   0.0000      14.132715       384.5707 
 137   0.0000      14.133156       384.5827 
 138   0.0000      14.182393       385.9225 
 139   0.0000      14.182536       385.9264 
 140   0.0000      14.215544       386.8246 
 141   0.0000      14.215544       386.8246 
 142   0.0000      14.304203       389.2372 

                 SPIN DOWN ORBITALS
  NO   OCC          E(Eh)            E(eV) 
   0   1.0000    -299.278934     -8143.7938 
   1   1.0000     -88.644428     -2412.1375 
   2   1.0000     -35.614043      -969.1074 
   3   1.0000     -30.990871      -843.3045 
   4   1.0000     -30.985721      -843.1643 
   5   1.0000     -30.985721      -843.1643 
   6   1.0000      -7.845561      -213.4886 
   7   1.0000      -5.786931      -157.4704 
   8   1.0000      -5.781119      -157.3122 
   9   1.0000      -5.781119      -157.3122 
  10   1.0000      -3.954578      -107.6095 
  11   1.0000      -2.543726       -69.2183 
  12   1.0000      -2.522701       -68.6462 
  13   1.0000      -2.522701       -68.6462 
  14   1.0000      -0.614467       -16.7205 
  15   1.0000      -0.313229        -8.5234 
  16   1.0000      -0.245945        -6.6925 
  17   1.0000      -0.245945        -6.6925 
  18   1.0000      -0.227254        -6.1839 
  19   1.0000      -0.216903        -5.9022 
  20   1.0000      -0.216836        -5.9004 
  21   0.0000      -0.157844        -4.2951 
  22   0.0000      -0.157844        -4.2951 
  23   0.0000      -0.108739        -2.9589 
  24   0.0000      -0.004147        -0.1129 
  25   0.0000      -0.004147        -0.1129 
  26   0.0000       0.017301         0.4708 
  27   0.0000       0.022135         0.6023 
  28   0.0000       0.041963         1.1419 
  29   0.0000       0.041963         1.1419 
  30   0.0000       0.077008         2.0955 
  31   0.0000       0.088856         2.4179 
  32   0.0000       0.088861         2.4180 
  33   0.0000       0.090414         2.4603 
  34   0.0000       0.100386         2.7316 
  35   0.0000       0.100386         2.7316 
  36   0.0000       0.124317         3.3828 
  37   0.0000       0.124317         3.3828 
  38   0.0000       0.127928         3.4811 
  39   0.0000       0.148642         4.0447 
  40   0.0000       0.207165         5.6373 
  41   0.0000       0.207165         5.6373 
  42   0.0000       0.232806         6.3350 
  43   0.0000       0.232811         6.3351 
  44   0.0000       0.246727         6.7138 
  45   0.0000       0.253307         6.8928 
  46   0.0000       0.311091         8.4652 
  47   0.0000       0.311091         8.4652 
  48   0.0000       0.348963         9.4958 
  49   0.0000       0.366270         9.9667 
  50   0.0000       0.366294         9.9674 
  51   0.0000       0.426480        11.6051 
  52   0.0000       0.426480        11.6051 
  53   0.0000       0.522821        14.2267 
  54   0.0000       0.522821        14.2267 
  55   0.0000       0.556089        15.1320 
  56   0.0000       0.579281        15.7630 
  57   0.0000       0.628164        17.0932 
  58   0.0000       0.628292        17.0967 
  59   0.0000       0.660953        17.9855 
  60   0.0000       0.660954        17.9855 
  61   0.0000       0.675470        18.3805 
  62   0.0000       0.741454        20.1760 
  63   0.0000       0.757189        20.6042 
  64   0.0000       0.757189        20.6042 
  65   0.0000       0.801479        21.8094 
  66   0.0000       0.801669        21.8145 
  67   0.0000       0.898046        24.4371 
  68   0.0000       0.898046        24.4371 
  69   0.0000       0.932100        25.3637 
  70   0.0000       1.021540        27.7975 
  71   0.0000       1.021540        27.7975 
  72   0.0000       1.196564        32.5602 
  73   0.0000       1.294085        35.2138 
  74   0.0000       1.294085        35.2138 
  75   0.0000       1.411750        38.4157 
  76   0.0000       1.411799        38.4170 
  77   0.0000       1.448222        39.4081 
  78   0.0000       1.461381        39.7662 
  79   0.0000       1.461381        39.7662 
  80   0.0000       1.464230        39.8437 
  81   0.0000       1.464822        39.8598 
  82   0.0000       1.517318        41.2883 
  83   0.0000       1.710471        46.5443 
  84   0.0000       1.710471        46.5443 
  85   0.0000       1.871703        50.9316 
  86   0.0000       1.871846        50.9355 
  87   0.0000       1.953159        53.1482 
  88   0.0000       1.953160        53.1482 
  89   0.0000       2.016571        54.8737 
  90   0.0000       2.156247        58.6745 
  91   0.0000       2.161326        58.8127 
  92   0.0000       2.161326        58.8127 
  93   0.0000       2.190062        59.5946 
  94   0.0000       2.190062        59.5946 
  95   0.0000       2.204734        59.9939 
  96   0.0000       2.204765        59.9947 
  97   0.0000       2.311355        62.8952 
  98   0.0000       2.489003        67.7292 
  99   0.0000       2.489003        67.7292 
 100   0.0000       3.161739        86.0353 
 101   0.0000       3.669901        99.8631 
 102   0.0000       3.887564       105.7860 
 103   0.0000       3.887564       105.7860 
 104   0.0000       3.961605       107.8008 
 105   0.0000       3.961830       107.8069 
 106   0.0000       3.978945       108.2726 
 107   0.0000       3.978945       108.2726 
 108   0.0000       4.077208       110.9465 
 109   0.0000       4.077208       110.9465 
 110   0.0000       4.108402       111.7953 
 111   0.0000       4.518667       122.9592 
 112   0.0000       4.952732       134.7707 
 113   0.0000       5.091163       138.5376 
 114   0.0000       5.091163       138.5376 
 115   0.0000       5.105079       138.9163 
 116   0.0000       5.105494       138.9275 
 117   0.0000       5.108975       139.0223 
 118   0.0000       5.109474       139.0359 
 119   0.0000       5.231785       142.3641 
 120   0.0000       5.231785       142.3641 
 121   0.0000       5.547157       150.9458 
 122   0.0000       5.655308       153.8887 
 123   0.0000       5.655309       153.8888 
 124   0.0000       5.956773       162.0920 
 125   0.0000       5.956773       162.0920 
 126   0.0000       7.014933       190.8860 
 127   0.0000      12.518406       340.6431 
 128   0.0000      12.518406       340.6431 
 129   0.0000      12.554757       341.6323 
 130   0.0000      12.555327       341.6478 
 131   0.0000      12.619594       343.3966 
 132   0.0000      12.619594       343.3966 
 133   0.0000      12.627278       343.6057 
 134   0.0000      14.201429       386.4405 
 135   0.0000      14.202510       386.4699 
 136   0.0000      14.209868       386.6702 
 137   0.0000      14.209868       386.6702 
 138   0.0000      14.216489       386.8503 
 139   0.0000      14.217961       386.8904 
 140   0.0000      14.246758       387.6740 
 141   0.0000      14.246758       387.6740 
 142   0.0000      14.367270       390.9533 

                    ********************************
                    * MULLIKEN POPULATION ANALYSIS *
                    ********************************

--------------------------------------------
MULLIKEN ATOMIC CHARGES AND SPIN POPULATIONS
--------------------------------------------
   0 Ni:    0.238721    1.121360
   1 S :   -0.238721    0.878640
Sum of atomic charges         :   -0.0000000
Sum of atomic spin populations:    2.0000000

-----------------------------------------------------
MULLIKEN REDUCED ORBITAL CHARGES AND SPIN POPULATIONS
-----------------------------------------------------
CHARGE
  0 Nis       :     6.753546  s :     6.753546
      pz      :     4.085630  p :    12.225384
      px      :     4.069877
      py      :     4.069877
      dz2     :     1.876608  d :     8.773641
      dxz     :     1.451689
      dyz     :     1.451689
      dx2y2   :     1.996838
      dxy     :     1.996816
      f0      :     0.002892  f :     0.008264
      f+1     :     0.002625
      f-1     :     0.002625
      f+2     :     0.000061
      f-2     :     0.000061
      f+3     :     0.000000
      f-3     :     0.000000
      g0      :     0.000200  g :     0.000444
      g+1     :     0.000105
      g-1     :     0.000105
      g+2     :     0.000017
      g-2     :     0.000017
      g+3     :     0.000000
      g-3     :     0.000000
      g+4     :     0.000000
      g-4     :     0.000000
  1 S s       :     5.917422  s :     5.917422
      pz      :     3.355718  p :    10.267763
      px      :     3.456022
      py      :     3.456022
      dz2     :     0.006553  d :     0.043791
      dxz     :     0.016593
      dyz     :     0.016593
      dx2y2   :     0.002021
      dxy     :     0.002031
      f0      :     0.001431  f :     0.009744
      f+1     :     0.003088
      f-1     :     0.003088
      f+2     :     0.001063
      f-2     :     0.001075
      f+3     :     0.000000
      f-3     :     0.000000

SPIN
  0 Nis       :     0.038916  s :     0.038916
      pz      :    -0.010568  p :     0.029710
      px      :     0.020139
      py      :     0.020139
      dz2     :    -0.005929  d :     1.050383
      dxz     :     0.527899
      dyz     :     0.527899
      dx2y2   :     0.000244
      dxy     :     0.000270
      f0      :     0.000394  f :     0.002385
      f+1     :     0.000952
      f-1     :     0.000952
      f+2     :     0.000043
      f-2     :     0.000044
      f+3     :     0.000000
      f-3     :     0.000000
      g0      :    -0.000047  g :    -0.000034
      g+1     :    -0.000009
      g-1     :    -0.000009
      g+2     :     0.000015
      g-2     :     0.000015
      g+3     :    -0.000000
      g-3     :    -0.000000
      g+4     :    -0.000000
      g-4     :     0.000000
  1 S s       :     0.001313  s :     0.001313
      pz      :    -0.023693  p :     0.887838
      px      :     0.455766
      py      :     0.455766
      dz2     :    -0.000952  d :    -0.007611
      dxz     :    -0.003127
      dyz     :    -0.003127
      dx2y2   :    -0.000197
      dxy     :    -0.000208
      f0      :     0.000567  f :    -0.002900
      f+1     :    -0.001620
      f-1     :    -0.001620
      f+2     :    -0.000106
      f-2     :    -0.000122
      f+3     :     0.000000
      f-3     :     0.000000


                     *******************************
                     * LOEWDIN POPULATION ANALYSIS *
                     *******************************

-------------------------------------------
LOEWDIN ATOMIC CHARGES AND SPIN POPULATIONS
-------------------------------------------
   0 Ni:   -0.008900    1.226243
   1 S :    0.008900    0.773757

----------------------------------------------------
LOEWDIN REDUCED ORBITAL CHARGES AND SPIN POPULATIONS
----------------------------------------------------
CHARGE
  0 Nis       :     6.539547  s :     6.539547
      pz      :     4.245913  p :    12.438124
      px      :     4.096106
      py      :     4.096106
      dz2     :     1.996793  d :     8.970579
      dxz     :     1.504097
      dyz     :     1.504097
      dx2y2   :     1.982806
      dxy     :     1.982785
      f0      :     0.025860  f :     0.059585
      f+1     :     0.016604
      f-1     :     0.016604
      f+2     :     0.000258
      f-2     :     0.000258
      f+3     :     0.000000
      f-3     :     0.000000
      g0      :     0.000525  g :     0.001065
      g+1     :     0.000256
      g-1     :     0.000256
      g+2     :     0.000014
      g-2     :     0.000014
      g+3     :     0.000000
      g-3     :     0.000000
      g+4     :     0.000000
      g-4     :     0.000000
  1 S s       :     5.495774  s :     5.495774
      pz      :     3.484063  p :    10.091786
      px      :     3.303862
      py      :     3.303862
      dz2     :     0.126827  d :     0.222818
      dxz     :     0.041968
      dyz     :     0.041968
      dx2y2   :     0.006022
      dxy     :     0.006033
      f0      :     0.084699  f :     0.180722
      f+1     :     0.037107
      f-1     :     0.037107
      f+2     :     0.010899
      f-2     :     0.010910
      f+3     :     0.000000
      f-3     :     0.000000

SPIN
  0 Nis       :     0.015630  s :     0.015630
      pz      :    -0.008674  p :     0.116687
      px      :     0.062681
      py      :     0.062681
      dz2     :    -0.004640  d :     1.078227
      dxz     :     0.540401
      dyz     :     0.540401
      dx2y2   :     0.001024
      dxy     :     0.001042
      f0      :     0.000812  f :     0.015600
      f+1     :     0.007270
      f-1     :     0.007270
      f+2     :     0.000124
      f-2     :     0.000124
      f+3     :     0.000000
      f-3     :     0.000000
      g0      :    -0.000045  g :     0.000098
      g+1     :     0.000061
      g-1     :     0.000061
      g+2     :     0.000010
      g-2     :     0.000010
      g+3     :    -0.000000
      g-3     :    -0.000000
      g+4     :    -0.000000
      g-4     :     0.000000
  1 S s       :     0.001685  s :     0.001685
      pz      :    -0.004362  p :     0.755569
      px      :     0.379965
      py      :     0.379965
      dz2     :    -0.000063  d :     0.008843
      dxz     :     0.004967
      dyz     :     0.004967
      dx2y2   :    -0.000511
      dxy     :    -0.000518
      f0      :    -0.000343  f :     0.007660
      f+1     :     0.004655
      f-1     :     0.004655
      f+2     :    -0.000648
      f-2     :    -0.000658
      f+3     :     0.000000
      f-3     :     0.000000


                      *****************************
                      * MAYER POPULATION ANALYSIS *
                      *****************************

  NA   - Mulliken gross atomic population
  ZA   - Total nuclear charge
  QA   - Mulliken gross atomic charge
  VA   - Mayer's total valence
  BVA  - Mayer's bonded valence
  FA   - Mayer's free valence

  ATOM       NA         ZA         QA         VA         BVA        FA
  0 Ni    27.7613    28.0000     0.2387     3.0838     2.3767     0.7071
  1 S     16.2387    16.0000    -0.2387     2.8041     2.3767     0.4274

  Mayer bond orders larger than 0.100000
B(  0-Ni,  1-S ) :   2.3767 

-------
TIMINGS
-------

Total SCF time: 0 days 0 hours 0 min 5 sec 

Total time                  ....       5.260 sec
Sum of individual times     ....       5.100 sec  ( 97.0%)

Fock matrix formation       ....       4.623 sec  ( 87.9%)
  Split-RI-J                ....       3.469 sec  ( 75.0% of F)
  XC integration            ....       1.061 sec  ( 22.9% of F)
    Basis function eval.    ....       0.147 sec  ( 13.9% of XC)
    Density eval.           ....       0.151 sec  ( 14.3% of XC)
    XC-Functional eval.     ....       0.029 sec  (  2.7% of XC)
    XC-Potential eval.      ....       0.496 sec  ( 46.8% of XC)
Diagonalization             ....       0.141 sec  (  2.7%)
Density matrix formation    ....       0.017 sec  (  0.3%)
Population analysis         ....       0.007 sec  (  0.1%)
Initial guess               ....       0.102 sec  (  1.9%)
Orbital Transformation      ....       0.000 sec  (  0.0%)
Orbital Orthonormalization  ....       0.000 sec  (  0.0%)
DIIS solution               ....       0.046 sec  (  0.9%)
Grid generation             ....       0.165 sec  (  3.1%)


-------------------------------------------------------------------------------
                          DFT DISPERSION CORRECTION                            
                                                                               
                              DFTD3 V3.1  Rev 1                                
                          USING Becke-Johnson damping                          
-------------------------------------------------------------------------------
The SCAN functional is recognized
Active option DFTDOPT                   ...         4   

molecular C6(AA) [au] = 705.356849 


            DFT-D V3
 parameters
 s6 scaling factor         :     1.0000 
 a1 scaling factor         :     0.5380 
 s8 scaling factor         :     0.0000 
 a2 scaling factor         :     5.4200 
 ad hoc parameters k1-k3   :    16.0000     1.3333    -4.0000 

 Edisp/kcal,au: -0.125878972161  -0.000200600890 
 E6   /kcal   :  -0.125878972 
 E8   /kcal   :  -0.000000000 
 % E8         :   0.000000000 

-------------------------   ----------------
Dispersion correction           -0.000200601
-------------------------   ----------------


-------------------------   --------------------
FINAL SINGLE POINT ENERGY     -1906.725152004746
-------------------------   --------------------


                            ***************************************
                            *     ORCA property calculations      *
                            ***************************************

                                    ---------------------
                                    Active property flags
                                    ---------------------
   (+) Dipole Moment


------------------------------------------------------------------------------
                       ORCA ELECTRIC PROPERTIES CALCULATION
------------------------------------------------------------------------------

Dipole Moment Calculation                       ... on
Quadrupole Moment Calculation                   ... off
Polarizability Calculation                      ... off
GBWName                                         ... 48_NiS.gbw
Electron density file                           ... 48_NiS.scfp
The origin for moment calculation is the CENTER OF MASS  = ( 0.000000,  0.000000  1.343324)

-------------
DIPOLE MOMENT
-------------
                                X             Y             Z
Electronic contribution:      0.00000       0.00000      -3.33713
Nuclear contribution   :      0.00000       0.00000       1.70320
                        -----------------------------------------
Total Dipole Moment    :      0.00000       0.00000      -1.63393
                        -----------------------------------------
Magnitude (a.u.)       :      1.63393
Magnitude (Debye)      :      4.15311



--------------------
Rotational spectrum 
--------------------
 
Rotational constants in cm-1:     0.000000     0.209451     0.209451 
Rotational constants in MHz :     0.000000  6279.170942  6279.170942 

 Dipole components along the rotational axes: 
x,y,z [a.u.] :    -1.633926     0.000000     0.000000 
x,y,z [Debye]:    -4.153110     0.000000     0.000000 

 

Timings for individual modules:

Sum of individual times         ...        8.669 sec (=   0.144 min)
GTO integral calculation        ...        3.081 sec (=   0.051 min)  35.5 %
SCF iterations                  ...        5.588 sec (=   0.093 min)  64.5 %
                             ****ORCA TERMINATED NORMALLY****
TOTAL RUN TIME: 0 days 0 hours 0 minutes 9 seconds 260 msec
