
                                 *****************
                                 * O   R   C   A *
                                 *****************

           --- An Ab Initio, DFT and Semiempirical electronic structure package ---

                  #######################################################
                  #                        -***-                        #
                  #          Department of theory and spectroscopy      #
                  #               Directorship: Frank Neese             #
                  #        Max Planck Institute fuer Kohlenforschung    #
                  #                Kaiser Wilhelm Platz 1               #
                  #                 D-45470 Muelheim/Ruhr               #
                  #                      Germany                        #
                  #                                                     #
                  #                  All rights reserved                #
                  #                        -***-                        #
                  #######################################################


                         Program Version 4.2.0 -  RELEASE  -


 With contributions from (in alphabetic order):
   Daniel Aravena         : Magnetic Suceptibility
   Michael Atanasov       : Ab Initio Ligand Field Theory (pilot matlab implementation)
   Alexander A. Auer      : GIAO ZORA, VPT2
   Ute Becker             : Parallelization
   Giovanni Bistoni       : ED, misc. LED, open-shell LED, HFLED
   Martin Brehm           : Molecular dynamics
   Dmytro Bykov           : SCF Hessian
   Vijay G. Chilkuri      : MRCI spin determinant printing, contributions to CSF-ICE
   Dipayan Datta          : RHF DLPNO-CCSD density
   Achintya Kumar Dutta   : EOM-CC, STEOM-CC
   Dmitry Ganyushin       : Spin-Orbit,Spin-Spin,Magnetic field MRCI
   Miquel Garcia          : C-PCM Hessian, Gaussian charge scheme
   Yang Guo               : DLPNO-NEVPT2, CIM, IAO-localization
   Andreas Hansen         : Spin unrestricted coupled pair/coupled cluster methods
   Benjamin Helmich-Paris : CASSCF linear response (MC-RPA)
   Lee Huntington         : MR-EOM, pCC
   Robert Izsak           : Overlap fitted RIJCOSX, COSX-SCS-MP3, EOM
   Christian Kollmar      : KDIIS, OOCD, Brueckner-CCSD(T), CCSD density
   Simone Kossmann        : Meta GGA functionals, TD-DFT gradient, OOMP2, MP2 Hessian
   Martin Krupicka        : AUTO-CI
   Lucas Lang             : DCDCAS
   Dagmar Lenk            : GEPOL surface, SMD
   Dimitrios Liakos       : Extrapolation schemes; Compound Job, initial MDCI parallelization
   Dimitrios Manganas     : Further ROCIS development; embedding schemes
   Dimitrios Pantazis     : SARC Basis sets
   Taras Petrenko         : DFT Hessian,TD-DFT gradient, ASA, ECA, R-Raman, ABS, FL, XAS/XES, NRVS
   Peter Pinski           : DLPNO-MP2, DLPNO-MP2 Gradient
   Christoph Reimann      : Effective Core Potentials
   Marius Retegan         : Local ZFS, SOC
   Christoph Riplinger    : Optimizer, TS searches, QM/MM, DLPNO-CCSD(T), (RO)-DLPNO pert. Triples
   Tobias Risthaus        : Range-separated hybrids, TD-DFT gradient, RPA, STAB
   Michael Roemelt        : Original ROCIS implementation
   Masaaki Saitow         : Open-shell DLPNO-CCSD energy and density
   Barbara Sandhoefer     : DKH picture change effects
   Avijit Sen             : IP-ROCIS
   Kantharuban Sivalingam : CASSCF convergence, NEVPT2, FIC-MRCI
   Bernardo de Souza      : ESD, SOC TD-DFT
   Georgi Stoychev        : AutoAux, RI-MP2 NMR
   Willem Van den Heuvel  : Paramagnetic NMR
   Boris Wezisla          : Elementary symmetry handling
   Frank Wennmohs         : Technical directorship


 We gratefully acknowledge several colleagues who have allowed us to
 interface, adapt or use parts of their codes:
   Stefan Grimme, W. Hujo, H. Kruse,             : VdW corrections, initial TS optimization,
                  C. Bannwarth                     DFT functionals, gCP, sTDA/sTD-DF
   Ed Valeev, F. Pavosevic, A. Kumar             : LibInt (2-el integral package), F12 methods
   Garnet Chan, S. Sharma, J. Yang, R. Olivares  : DMRG
   Ulf Ekstrom                                   : XCFun DFT Library
   Mihaly Kallay                                 : mrcc  (arbitrary order and MRCC methods)
   Andreas Klamt, Michael Diedenhofen            : otool_cosmo (COSMO solvation model)
   Jiri Pittner, Ondrej Demel                    : Mk-CCSD
   Frank Weinhold                                : gennbo (NPA and NBO analysis)
   Christopher J. Cramer and Donald G. Truhlar   : smd solvation model
   Lars Goerigk                                  : TD-DFT with DH, B97 family of functionals
   V. Asgeirsson, H. Jonsson                     : NEB implementation
   FAccTs GmbH                                   : IRC, NEB, NEB-TS, Multilevel, MM, QM/MM, CI optimization
   S Lehtola, MJT Oliveira, MAL Marques          : LibXC Library


 Your calculation uses the libint2 library for the computation of 2-el integrals
 For citations please refer to: http://libint.valeyev.net

 Your ORCA version has been built with support for libXC version: 4.2.3
 For citations please refer to: https://tddft.org/programs/libxc/

 This ORCA versions uses:
   CBLAS   interface :  Fast vector & matrix operations
   LAPACKE interface :  Fast linear algebra routines
   SCALAPACK package :  Parallel linear algebra routines


Your calculation utilizes the atom-pairwise dispersion correction
with the Becke-Johnson damping scheme (D3BJ)
Cite in your paper:
S.Grimme, S.Ehrlich, L.Goerigk, J Comput Chem, (2011), 32, 1456–1465 
S.Grimme, J.Antony, S.Ehrlich and H.Krieg, J.Chem.Phys., 132, (2010), 154104 
   

----- Orbital basis set information -----
Your calculation utilizes the basis: aug-cc-pVTZ 
    H, B-Ne : Obtained from the ccRepo (grant-hill.group.shef.ac.uk/ccrepo) Feb. 2017
              R. A. Kendall, T. H. Dunning, Jr., R. J. Harrison, J. Chem. Phys. 96, 6796 (1992)
         He : Obtained from the ccRepo (grant-hill.group.shef.ac.uk/ccrepo) Feb. 2017
              D. E. Woon, T. H. Dunning, Jr., J. Chem. Phys. 100, 2975 (1994)
  Li-Be, Na : Obtained from the ccRepo (grant-hill.group.shef.ac.uk/ccrepo) Feb. 2017
              B. P. Prascher, D. E. Woon, K. A. Peterson, T. H. Dunning, Jr., A. K. Wilson, Theor. Chem. Acc. 128, 69 (2011)
         Mg : Obtained from the Peterson Research Group Website (tyr0.chem.wsu.edu/~kipeters) Feb. 2017
              B. P. Prascher, D. E. Woon, K. A. Peterson, T. H. Dunning, Jr., A. K. Wilson, Theor. Chem. Acc. 128, 69 (2011)
      Al-Ar : Obtained from the ccRepo (grant-hill.group.shef.ac.uk/ccrepo) Feb. 2017
              D. E. Woon, T. H. Dunning, Jr., J. Chem. Phys. 98, 1358 (1993)
      Sc-Zn : Obtained from the ccRepo (grant-hill.group.shef.ac.uk/ccrepo) Feb. 2017
              N. B. Balabanov, K. A. Peterson, J. Chem. Phys. 123, 064107 (2005)
              N. B. Balabanov, K. A. Peterson, J. Chem. Phys. 125, 074110 (2006)
      Ga-Kr : Obtained from the ccRepo (grant-hill.group.shef.ac.uk/ccrepo) Feb. 2017
              A. K. Wilson, D. E. Woon, K. A. Peterson, T. H. Dunning, Jr., J. Chem. Phys. 110, 7667 (1999)
     Ag, Au : Obtained from the Peterson Research Group Website (tyr0.chem.wsu.edu/~kipeters) Feb. 2017
              K. A. Peterson, C. Puzzarini, Theor. Chem. Acc. 114, 283 (2005)

----- AuxJ basis set information -----
Your calculation utilizes the auxiliary basis: def2/J
   F. Weigend, Phys. Chem. Chem. Phys. 8, 1057 (2006).

================================================================================
                                        WARNINGS
                       Please study these warnings very carefully!
================================================================================


WARNING: your system is open-shell and RHF/RKS was chosen
  ===> : WILL SWITCH to UHF/UKS


WARNING: The SCAN functional is very grid-sensitive!
         Use at least GRID5 and a higher intacc

INFO   : the flag for use of LIBINT has been found!

================================================================================
                                       INPUT FILE
================================================================================
NAME = 57_ZnCl.in
|  1> #
|  2> # 57_ZnCl scanfunc/aug-cc-pvtz
|  3> #
|  4> ! scanfunc d3bj aug-cc-pvtz def2/j grid4 nofinalgrid
|  5> 
|  6> *xyz 0 2
|  7>   Zn  0.00000000000000      0.00000000000000     -0.08307444970280
|  8>   Cl  0.00000000000000      0.00000000000000      2.08307444970280
|  9> *
| 10> 
| 11> %pal
| 12> nprocs 24
| 13> end
| 14> 
| 15> 
| 16>                          ****END OF INPUT****
================================================================================

                       ****************************
                       * Single Point Calculation *
                       ****************************

---------------------------------
CARTESIAN COORDINATES (ANGSTROEM)
---------------------------------
  Zn     0.000000    0.000000   -0.083074
  Cl     0.000000    0.000000    2.083074

----------------------------
CARTESIAN COORDINATES (A.U.)
----------------------------
  NO LB      ZA    FRAG     MASS         X           Y           Z
   0 Zn   30.0000    0    65.380    0.000000    0.000000   -0.156988
   1 Cl   17.0000    0    35.453    0.000000    0.000000    3.936440

--------------------------------
INTERNAL COORDINATES (ANGSTROEM)
--------------------------------
 Zn     0   0   0     0.000000000000     0.00000000     0.00000000
 Cl     1   0   0     2.166148899406     0.00000000     0.00000000

---------------------------
INTERNAL COORDINATES (A.U.)
---------------------------
 Zn     0   0   0     0.000000000000     0.00000000     0.00000000
 Cl     1   0   0     4.093428185172     0.00000000     0.00000000

---------------------
BASIS SET INFORMATION
---------------------
There are 2 groups of distinct atoms

 Group   1 Type Zn  : 116s77p23d3f2g contracted to 8s7p5d3f2g pattern {19191919191911/151515151511/77711/111/11}
 Group   2 Type Cl  : 42s17p3d2f contracted to 6s5p3d2f pattern {131313111/77111/111/11}

Atom   0Zn   basis set group =>   1
Atom   1Cl   basis set group =>   2
---------------------------------
AUXILIARY/J BASIS SET INFORMATION
---------------------------------
There are 2 groups of distinct atoms

 Group   1 Type Zn  : 19s5p5d3f3g contracted to 8s5p5d2f3g pattern {121111111/11111/11111/21/111}
 Group   2 Type Cl  : 14s5p5d2f1g contracted to 8s4p3d1f1g pattern {71111111/2111/311/2/1}

Atom   0Zn   basis set group =>   1
Atom   1Cl   basis set group =>   2


           ************************************************************
           *        Program running with 24 parallel MPI-processes    *
           *              working on a common directory               *
           ************************************************************
------------------------------------------------------------------------------
                           ORCA GTO INTEGRAL CALCULATION
                           -- RI-GTO INTEGRALS CHOSEN --
------------------------------------------------------------------------------

                         BASIS SET STATISTICS AND STARTUP INFO

Gaussian basis set:
 # of primitive gaussian shells          ...  285
 # of primitive gaussian functions       ...  623
 # of contracted shells                  ...   41
 # of contracted basis functions         ...  143
 Highest angular momentum                ...    4
 Maximum contraction depth               ...   19
Auxiliary gaussian basis set:
 # of primitive gaussian shells          ...   62
 # of primitive gaussian functions       ...  184
 # of contracted shells                  ...   40
 # of contracted aux-basis functions     ...  140
 Highest angular momentum                ...    4
 Maximum contraction depth               ...   12
Ratio of auxiliary to basis functions    ...  0.98
Integral package used                  ... LIBINT
 One Electron integrals                  ... done
 Ordering auxiliary basis shells         ... done
 Integral threshhold             Thresh  ...  1.000e-10
 Primitive cut-off               TCut    ...  1.000e-11
 Pre-screening matrix                    ... done
 Shell pair data                         ... 
 Ordering of the shell pairs             ... done (   0.000 sec) 861 of 861 pairs
 Determination of significant pairs      ... done (   0.000 sec)
 Creation of shell pair data             ... done (   0.002 sec)
 Storage of shell pair data              ... done (   0.060 sec)
 Shell pair data done in (   0.061 sec)
 Computing two index integrals           ... done
 Cholesky decomposition of the V-matrix  ... done


Timings:
 Total evaluation time                   ...   2.711 sec (  0.045 min)
 One electron matrix time                ...   0.043 sec (  0.001 min) =  1.6%
 Schwartz matrix evaluation time         ...   2.569 sec (  0.043 min) = 94.7%
 Two index repulsion integral time       ...   0.001 sec (  0.000 min) =  0.0%
 Cholesky decomposition of V             ...   0.001 sec (  0.000 min) =  0.0%
 Three index repulsion integral time     ...   0.000 sec (  0.000 min) =  0.0%



           ************************************************************
           *        Program running with 24 parallel MPI-processes    *
           *              working on a common directory               *
           ************************************************************
-------------------------------------------------------------------------------
                                 ORCA SCF
-------------------------------------------------------------------------------

------------
SCF SETTINGS
------------
Hamiltonian:
 Density Functional     Method          .... DFT(GTOs)
 Exchange Functional    Exchange        .... SCAN
 Correlation Functional Correlation     .... SCAN
 Gradients option       PostSCFGGA      .... off
   Density functional embedding theory  .... OFF
   NL short-range parameter             ....  6.400000
 RI-approximation to the Coulomb term is turned on
   Number of auxiliary basis functions  .... 140


General Settings:
 Integral files         IntName         .... 57_ZnCl
 Hartree-Fock type      HFTyp           .... UHF
 Total Charge           Charge          ....    0
 Multiplicity           Mult            ....    2
 Number of Electrons    NEL             ....   47
 Basis Dimension        Dim             ....  143
 Nuclear Repulsion      ENuc            ....    124.5899468439 Eh

Convergence Acceleration:
 DIIS                   CNVDIIS         .... on
   Start iteration      DIISMaxIt       ....    12
   Startup error        DIISStart       ....  0.200000
   # of expansion vecs  DIISMaxEq       ....     5
   Bias factor          DIISBfac        ....   1.050
   Max. coefficient     DIISMaxC        ....  10.000
 Newton-Raphson         CNVNR           .... off
 SOSCF                  CNVSOSCF        .... off
 Level Shifting         CNVShift        .... on
   Level shift para.    LevelShift      ....    0.2500
   Turn off err/grad.   ShiftErr        ....    0.0010
 Zerner damping         CNVZerner       .... off
 Static damping         CNVDamp         .... on
   Fraction old density DampFac         ....    0.7000
   Max. Damping (<1)    DampMax         ....    0.9800
   Min. Damping (>=0)   DampMin         ....    0.0000
   Turn off err/grad.   DampErr         ....    0.1000
 Fernandez-Rico         CNVRico         .... off

SCF Procedure:
 Maximum # iterations   MaxIter         ....   125
 SCF integral mode      SCFMode         .... Direct
   Integral package                     .... LIBINT
 Reset frequency        DirectResetFreq ....    20
 Integral Threshold     Thresh          ....  1.000e-10 Eh
 Primitive CutOff       TCut            ....  1.000e-11 Eh

Convergence Tolerance:
 Convergence Check Mode ConvCheckMode   .... Total+1el-Energy
 Convergence forced     ConvForced      .... 0
 Energy Change          TolE            ....  1.000e-06 Eh
 1-El. energy change                    ....  1.000e-03 Eh
 DIIS Error             TolErr          ....  1.000e-06


Diagonalization of the overlap matrix:
Smallest eigenvalue                        ... 2.608e-04
Time for diagonalization                   ...    0.006 sec
Threshold for overlap eigenvalues          ... 1.000e-08
Number of eigenvalues below threshold      ... 0
Time for construction of square roots      ...    0.003 sec
Total time needed                          ...    0.009 sec

-------------------
DFT GRID GENERATION
-------------------

General Integration Accuracy     IntAcc      ...  4.670
Radial Grid Type                 RadialGrid  ... Gauss-Chebyshev
Angular Grid (max. acc.)         AngularGrid ... Lebedev-302
Angular grid pruning method      GridPruning ... 3 (G Style)
Weight generation scheme         WeightScheme... Becke
Basis function cutoff            BFCut       ...    1.0000e-10
Integration weight cutoff        WCut        ...    1.0000e-14
Grids for H and He will be reduced by one unit

# of grid points (after initial pruning)     ...  16378 (   0.0 sec)
# of grid points (after weights+screening)   ...  16351 (   0.0 sec)
nearest neighbour list constructed           ...    0.0 sec
Grid point re-assignment to atoms done       ...    0.0 sec
Grid point division into batches done        ...    0.1 sec
Reduced shell lists constructed in    0.1 sec

Total number of grid points                  ...    16351
Total number of batches                      ...      256
Average number of points per batch           ...       63
Average number of grid points per atom       ...     8176
Average number of shells per batch           ...    14.00 (34.15%)
Average number of basis functions per batch  ...    31.50 (22.03%)
Average number of large shells per batch     ...     6.83 (48.81%)
Average number of large basis fcns per batch ...    16.17 (51.32%)
Maximum spatial batch extension              ...  23.02, 23.02, 16.62 au
Average spatial batch extension              ...   0.80,  0.78,  0.61 au

Time for grid setup =    0.164 sec

------------------------------
INITIAL GUESS: MODEL POTENTIAL
------------------------------
Loading Hartree-Fock densities                     ... done
Calculating cut-offs                               ... done
Setting up the integral package                    ... done
Initializing the effective Hamiltonian             ... done
Starting the Coulomb interaction                   ... done (   0.0 sec)
Reading the grid                                   ... done
Mapping shells                                     ... done
Starting the XC term evaluation                    ... done (   0.0 sec)
  promolecular density results
     # of electrons  =     46.999999447
     EX              =   -109.835295247
     EC              =     -0.839183527
     EX+EC           =   -110.674478774
Transforming the Hamiltonian                       ... done (   0.0 sec)
Diagonalizing the Hamiltonian                      ... done (   0.0 sec)
Back transforming the eigenvectors                 ... done (   0.0 sec)
Now organizing SCF variables                       ... done
                      ------------------
                      INITIAL GUESS DONE (   0.3 sec)
                      ------------------
--------------
SCF ITERATIONS
--------------
ITER       Energy         Delta-E        Max-DP      RMS-DP      [F,P]     Damp
               ***  Starting incremental Fock matrix formation  ***
  0  -2239.6853941173   0.000000000000 0.08076570  0.00166297  0.5234288 0.7000
  1  -2239.7787905130  -0.093396395651 0.05485089  0.00086892  0.1479050 0.7000
                               ***Turning on DIIS***
  2  -2239.8150099137  -0.036219400712 0.13714328  0.00165133  0.0700622 0.0000
  3  -2239.8737466095  -0.058736695755 0.03284664  0.00044745  0.0684368 0.0000
  4  -2239.8896946254  -0.015948015932 0.01192294  0.00018839  0.0181272 0.0000
  5  -2239.8910534886  -0.001358863192 0.00508194  0.00009511  0.0171826 0.0000
  6  -2239.8914001371  -0.000346648550 0.00403445  0.00005657  0.0041010 0.0000
  7  -2239.8914419172  -0.000041780047 0.00418776  0.00004151  0.0009386 0.0000
  8  -2239.8914528307  -0.000010913519 0.00107167  0.00001048  0.0002082 0.0000
  9  -2239.8914531670  -0.000000336346 0.00022623  0.00000251  0.0001451 0.0000
 10  -2239.8914534171  -0.000000250062 0.00012858  0.00000143  0.0000468 0.0000
                 **** Energy Check signals convergence ****

               *****************************************************
               *                     SUCCESS                       *
               *           SCF CONVERGED AFTER  11 CYCLES          *
               *****************************************************


----------------
TOTAL SCF ENERGY
----------------

Total Energy       :        -2239.89145337 Eh          -60950.54511 eV

Components:
Nuclear Repulsion  :          124.58994684 Eh            3390.26481 eV
Electronic Energy  :        -2364.48140021 Eh          -64340.80992 eV
One Electron Energy:        -3367.15254079 Eh          -91624.87875 eV
Two Electron Energy:         1002.67114058 Eh           27284.06883 eV

Virial components:
Potential Energy   :        -4477.41701332 Eh         -121836.71099 eV
Kinetic Energy     :         2237.52555995 Eh           60886.16588 eV
Virial Ratio       :            2.00105737


DFT components:
N(Alpha)           :       24.000005123163 electrons
N(Beta)            :       23.000005831468 electrons
N(Total)           :       47.000010954631 electrons
E(X)               :      -97.583613635042 Eh       
E(C)               :       -2.079194839697 Eh       
E(XC)              :      -99.662808474739 Eh       
DFET-embed. en.    :        0.000000000000 Eh       

---------------
SCF CONVERGENCE
---------------

  Last Energy change         ...    4.8911e-08  Tolerance :   1.0000e-06
  Last MAX-Density change    ...    2.4572e-05  Tolerance :   1.0000e-05
  Last RMS-Density change    ...    4.1959e-07  Tolerance :   1.0000e-06
  Last DIIS Error            ...    1.0775e-05  Tolerance :   1.0000e-06

             **** THE GBW FILE WAS UPDATED (57_ZnCl.gbw) ****
             **** DENSITY FILE WAS UPDATED (57_ZnCl.scfp) ****
             **** ENERGY FILE WAS UPDATED (57_ZnCl.en.tmp) ****
----------------------
UHF SPIN CONTAMINATION
----------------------

Warning: in a DFT calculation there is little theoretical justification to 
         calculate <S**2> as in Hartree-Fock theory. We will do it anyways
         but you should keep in mind that the values have only limited relevance

Expectation value of <S**2>     :     0.756016
Ideal value S*(S+1) for S=0.5   :     0.750000
Deviation                       :     0.006016

             **** THE GBW FILE WAS UPDATED (57_ZnCl.gbw) ****
             **** DENSITY FILE WAS UPDATED (57_ZnCl.scfp) ****
----------------
ORBITAL ENERGIES
----------------
                 SPIN UP ORBITALS
  NO   OCC          E(Eh)            E(eV) 
   0   1.0000    -346.824341     -9437.5701 
   1   1.0000    -101.260478     -2755.4377 
   2   1.0000     -42.046786     -1144.1512 
   3   1.0000     -37.032371     -1007.7020 
   4   1.0000     -37.032371     -1007.7020 
   5   1.0000     -37.031711     -1007.6841 
   6   1.0000      -9.310176      -253.3428 
   7   1.0000      -7.071429      -192.4234 
   8   1.0000      -7.065367      -192.2584 
   9   1.0000      -7.065367      -192.2584 
  10   1.0000      -4.835324      -131.5758 
  11   1.0000      -3.202298       -87.1390 
  12   1.0000      -3.202298       -87.1390 
  13   1.0000      -3.197604       -87.0112 
  14   1.0000      -0.758803       -20.6481 
  15   1.0000      -0.463868       -12.6225 
  16   1.0000      -0.458630       -12.4800 
  17   1.0000      -0.458623       -12.4798 
  18   1.0000      -0.458403       -12.4738 
  19   1.0000      -0.458403       -12.4738 
  20   1.0000      -0.349543        -9.5115 
  21   1.0000      -0.284411        -7.7392 
  22   1.0000      -0.284411        -7.7392 
  23   1.0000      -0.225096        -6.1252 
  24   0.0000      -0.057302        -1.5593 
  25   0.0000      -0.057302        -1.5593 
  26   0.0000       0.011886         0.3234 
  27   0.0000       0.032533         0.8853 
  28   0.0000       0.051793         1.4093 
  29   0.0000       0.051801         1.4096 
  30   0.0000       0.080366         2.1869 
  31   0.0000       0.098598         2.6830 
  32   0.0000       0.117496         3.1972 
  33   0.0000       0.117500         3.1973 
  34   0.0000       0.132326         3.6008 
  35   0.0000       0.158107         4.3023 
  36   0.0000       0.158146         4.3034 
  37   0.0000       0.191816         5.2196 
  38   0.0000       0.191819         5.2197 
  39   0.0000       0.196199         5.3388 
  40   0.0000       0.227453         6.1893 
  41   0.0000       0.227941         6.2026 
  42   0.0000       0.227941         6.2026 
  43   0.0000       0.281827         7.6689 
  44   0.0000       0.282046         7.6749 
  45   0.0000       0.332016         9.0346 
  46   0.0000       0.370786        10.0896 
  47   0.0000       0.370789        10.0897 
  48   0.0000       0.394292        10.7292 
  49   0.0000       0.562349        15.3023 
  50   0.0000       0.562349        15.3023 
  51   0.0000       0.654428        17.8079 
  52   0.0000       0.709172        19.2975 
  53   0.0000       0.709230        19.2991 
  54   0.0000       0.709230        19.2991 
  55   0.0000       0.709661        19.3109 
  56   0.0000       0.737382        20.0652 
  57   0.0000       0.770165        20.9572 
  58   0.0000       0.777773        21.1643 
  59   0.0000       0.778505        21.1842 
  60   0.0000       0.860605        23.4182 
  61   0.0000       0.873064        23.7573 
  62   0.0000       0.873065        23.7573 
  63   0.0000       0.947665        25.7873 
  64   0.0000       0.947666        25.7873 
  65   0.0000       1.035206        28.1694 
  66   0.0000       1.035967        28.1901 
  67   0.0000       1.036887        28.2151 
  68   0.0000       1.045801        28.4577 
  69   0.0000       1.045801        28.4577 
  70   0.0000       1.232091        33.5269 
  71   0.0000       1.232091        33.5269 
  72   0.0000       1.237694        33.6794 
  73   0.0000       1.615900        43.9709 
  74   0.0000       1.615900        43.9709 
  75   0.0000       1.638707        44.5915 
  76   0.0000       1.721141        46.8346 
  77   0.0000       1.721401        46.8417 
  78   0.0000       1.946157        52.9576 
  79   0.0000       1.946157        52.9576 
  80   0.0000       2.074221        56.4424 
  81   0.0000       2.267655        61.7060 
  82   0.0000       2.268095        61.7180 
  83   0.0000       2.378385        64.7191 
  84   0.0000       2.378385        64.7191 
  85   0.0000       2.382483        64.8307 
  86   0.0000       2.478067        67.4316 
  87   0.0000       2.478067        67.4316 
  88   0.0000       2.744929        74.6933 
  89   0.0000       2.745343        74.7046 
  90   0.0000       2.767751        75.3143 
  91   0.0000       2.818801        76.7035 
  92   0.0000       2.818802        76.7035 
  93   0.0000       2.834843        77.1400 
  94   0.0000       2.834843        77.1400 
  95   0.0000       2.854818        77.6835 
  96   0.0000       2.855245        77.6952 
  97   0.0000       2.944963        80.1365 
  98   0.0000       2.944963        80.1365 
  99   0.0000       3.011330        81.9425 
 100   0.0000       3.148991        85.6884 
 101   0.0000       4.220515       114.8460 
 102   0.0000       4.294745       116.8660 
 103   0.0000       4.294745       116.8660 
 104   0.0000       4.831333       131.4673 
 105   0.0000       4.932641       134.2240 
 106   0.0000       4.932641       134.2240 
 107   0.0000       4.980958       135.5388 
 108   0.0000       4.980992       135.5397 
 109   0.0000       5.144569       139.9908 
 110   0.0000       5.144569       139.9908 
 111   0.0000       5.460598       148.5904 
 112   0.0000       5.903646       160.6464 
 113   0.0000       7.389946       201.0906 
 114   0.0000       7.390499       201.1057 
 115   0.0000       7.392217       201.1525 
 116   0.0000       7.392217       201.1525 
 117   0.0000       7.397237       201.2890 
 118   0.0000       7.397533       201.2971 
 119   0.0000       7.419423       201.8928 
 120   0.0000       7.419423       201.8928 
 121   0.0000       7.484870       203.6737 
 122   0.0000      10.228367       278.3280 
 123   0.0000      10.228504       278.3318 
 124   0.0000      10.294171       280.1186 
 125   0.0000      10.294171       280.1186 
 126   0.0000      10.465217       284.7730 
 127   0.0000      15.967003       434.4842 
 128   0.0000      15.967003       434.4842 
 129   0.0000      15.991063       435.1389 
 130   0.0000      15.991098       435.1399 
 131   0.0000      16.075554       437.4381 
 132   0.0000      16.075554       437.4381 
 133   0.0000      16.178105       440.2286 
 134   0.0000      19.860356       540.4278 
 135   0.0000      19.860520       540.4322 
 136   0.0000      19.863032       540.5006 
 137   0.0000      19.863032       540.5006 
 138   0.0000      19.866444       540.5934 
 139   0.0000      19.866882       540.6053 
 140   0.0000      19.878525       540.9222 
 141   0.0000      19.878525       540.9222 
 142   0.0000      19.900643       541.5240 

                 SPIN DOWN ORBITALS
  NO   OCC          E(Eh)            E(eV) 
   0   1.0000    -346.822640     -9437.5238 
   1   1.0000    -101.258533     -2755.3848 
   2   1.0000     -42.045456     -1144.1150 
   3   1.0000     -37.031056     -1007.6663 
   4   1.0000     -37.031056     -1007.6663 
   5   1.0000     -37.030606     -1007.6540 
   6   1.0000      -9.315157      -253.4783 
   7   1.0000      -7.069096      -192.3599 
   8   1.0000      -7.066298      -192.2837 
   9   1.0000      -7.066298      -192.2837 
  10   1.0000      -4.837575      -131.6371 
  11   1.0000      -3.203789       -87.1795 
  12   1.0000      -3.203789       -87.1795 
  13   1.0000      -3.199007       -87.0494 
  14   1.0000      -0.741486       -20.1769 
  15   1.0000      -0.457093       -12.4381 
  16   1.0000      -0.454314       -12.3625 
  17   1.0000      -0.454305       -12.3623 
  18   1.0000      -0.454305       -12.3623 
  19   1.0000      -0.454305       -12.3623 
  20   1.0000      -0.328495        -8.9388 
  21   1.0000      -0.279941        -7.6176 
  22   1.0000      -0.279941        -7.6176 
  23   0.0000      -0.151107        -4.1118 
  24   0.0000      -0.030999        -0.8435 
  25   0.0000      -0.030999        -0.8435 
  26   0.0000      -0.029175        -0.7939 
  27   0.0000       0.016966         0.4617 
  28   0.0000       0.028904         0.7865 
  29   0.0000       0.028909         0.7867 
  30   0.0000       0.061922         1.6850 
  31   0.0000       0.097094         2.6421 
  32   0.0000       0.106756         2.9050 
  33   0.0000       0.106757         2.9050 
  34   0.0000       0.114817         3.1243 
  35   0.0000       0.152699         4.1551 
  36   0.0000       0.152746         4.1564 
  37   0.0000       0.170026         4.6267 
  38   0.0000       0.170028         4.6267 
  39   0.0000       0.190032         5.1710 
  40   0.0000       0.209461         5.6997 
  41   0.0000       0.221399         6.0246 
  42   0.0000       0.221399         6.0246 
  43   0.0000       0.278388         7.5753 
  44   0.0000       0.278443         7.5768 
  45   0.0000       0.318865         8.6768 
  46   0.0000       0.362813         9.8726 
  47   0.0000       0.362814         9.8727 
  48   0.0000       0.398279        10.8377 
  49   0.0000       0.559485        15.2244 
  50   0.0000       0.559485        15.2244 
  51   0.0000       0.636706        17.3256 
  52   0.0000       0.704580        19.1726 
  53   0.0000       0.704819        19.1791 
  54   0.0000       0.710204        19.3256 
  55   0.0000       0.710204        19.3256 
  56   0.0000       0.737283        20.0625 
  57   0.0000       0.762020        20.7356 
  58   0.0000       0.771580        20.9958 
  59   0.0000       0.771648        20.9976 
  60   0.0000       0.859196        23.3799 
  61   0.0000       0.870414        23.6852 
  62   0.0000       0.870414        23.6852 
  63   0.0000       0.928793        25.2737 
  64   0.0000       0.928793        25.2737 
  65   0.0000       1.032426        28.0937 
  66   0.0000       1.042373        28.3644 
  67   0.0000       1.042631        28.3714 
  68   0.0000       1.043679        28.3999 
  69   0.0000       1.043679        28.3999 
  70   0.0000       1.241093        33.7719 
  71   0.0000       1.241364        33.7792 
  72   0.0000       1.241364        33.7792 
  73   0.0000       1.624613        44.2080 
  74   0.0000       1.624613        44.2080 
  75   0.0000       1.641331        44.6629 
  76   0.0000       1.728163        47.0257 
  77   0.0000       1.728238        47.0277 
  78   0.0000       1.949265        53.0422 
  79   0.0000       1.949265        53.0422 
  80   0.0000       2.068136        56.2768 
  81   0.0000       2.265346        61.6432 
  82   0.0000       2.265356        61.6435 
  83   0.0000       2.381684        64.8089 
  84   0.0000       2.381684        64.8089 
  85   0.0000       2.402795        65.3834 
  86   0.0000       2.489847        67.7522 
  87   0.0000       2.489847        67.7522 
  88   0.0000       2.734947        74.4217 
  89   0.0000       2.735000        74.4231 
  90   0.0000       2.772699        75.4490 
  91   0.0000       2.814873        76.5966 
  92   0.0000       2.814873        76.5966 
  93   0.0000       2.830094        77.0108 
  94   0.0000       2.830094        77.0108 
  95   0.0000       2.861694        77.8707 
  96   0.0000       2.862438        77.8909 
  97   0.0000       2.952558        80.3432 
  98   0.0000       2.952558        80.3432 
  99   0.0000       3.013126        81.9913 
 100   0.0000       3.145646        85.5974 
 101   0.0000       4.195944       114.1774 
 102   0.0000       4.284413       116.5848 
 103   0.0000       4.284413       116.5848 
 104   0.0000       4.824574       131.2833 
 105   0.0000       4.931203       134.1848 
 106   0.0000       4.931203       134.1848 
 107   0.0000       4.975930       135.4019 
 108   0.0000       4.976071       135.4058 
 109   0.0000       5.137708       139.8041 
 110   0.0000       5.137708       139.8041 
 111   0.0000       5.447624       148.2374 
 112   0.0000       5.899024       160.5206 
 113   0.0000       7.402547       201.4335 
 114   0.0000       7.403095       201.4485 
 115   0.0000       7.405687       201.5190 
 116   0.0000       7.405687       201.5190 
 117   0.0000       7.411556       201.6787 
 118   0.0000       7.411828       201.6861 
 119   0.0000       7.433589       202.2782 
 120   0.0000       7.433589       202.2782 
 121   0.0000       7.495957       203.9754 
 122   0.0000      10.216052       277.9929 
 123   0.0000      10.216065       277.9932 
 124   0.0000      10.281994       279.7873 
 125   0.0000      10.281994       279.7873 
 126   0.0000      10.450829       284.3815 
 127   0.0000      15.976093       434.7316 
 128   0.0000      15.976093       434.7316 
 129   0.0000      15.996295       435.2813 
 130   0.0000      15.996308       435.2817 
 131   0.0000      16.079761       437.5525 
 132   0.0000      16.079761       437.5525 
 133   0.0000      16.181103       440.3102 
 134   0.0000      19.874049       540.8004 
 135   0.0000      19.874211       540.8048 
 136   0.0000      19.875779       540.8474 
 137   0.0000      19.875779       540.8474 
 138   0.0000      19.878294       540.9159 
 139   0.0000      19.878724       540.9276 
 140   0.0000      19.889865       541.2307 
 141   0.0000      19.889865       541.2307 
 142   0.0000      19.911735       541.8258 

                    ********************************
                    * MULLIKEN POPULATION ANALYSIS *
                    ********************************

--------------------------------------------
MULLIKEN ATOMIC CHARGES AND SPIN POPULATIONS
--------------------------------------------
   0 Zn:    0.496867    0.843256
   1 Cl:   -0.496867    0.156744
Sum of atomic charges         :   -0.0000000
Sum of atomic spin populations:    1.0000000

-----------------------------------------------------
MULLIKEN REDUCED ORBITAL CHARGES AND SPIN POPULATIONS
-----------------------------------------------------
CHARGE
  0 Zns       :     7.137780  s :     7.137780
      pz      :     4.265799  p :    12.369324
      px      :     4.051762
      py      :     4.051762
      dz2     :     1.989885  d :     9.991502
      dxz     :     2.001071
      dyz     :     2.001071
      dx2y2   :     1.999738
      dxy     :     1.999737
      f0      :     0.001918  f :     0.004510
      f+1     :     0.001290
      f-1     :     0.001290
      f+2     :     0.000006
      f-2     :     0.000006
      f+3     :    -0.000000
      f-3     :    -0.000000
      g0      :     0.000007  g :     0.000016
      g+1     :     0.000005
      g-1     :     0.000005
      g+2     :     0.000000
      g-2     :     0.000000
      g+3     :     0.000000
      g-3     :     0.000000
      g+4     :     0.000000
      g-4     :     0.000000
  1 Cls       :     5.982584  s :     5.982584
      pz      :     3.607947  p :    11.483254
      px      :     3.937653
      py      :     3.937653
      dz2     :     0.013670  d :     0.028337
      dxz     :     0.007171
      dyz     :     0.007171
      dx2y2   :     0.000162
      dxy     :     0.000163
      f0      :     0.000410  f :     0.002693
      f+1     :     0.001048
      f-1     :     0.001048
      f+2     :     0.000093
      f-2     :     0.000094
      f+3     :     0.000000
      f-3     :     0.000000

SPIN
  0 Zns       :     0.649100  s :     0.649100
      pz      :     0.178388  p :     0.190095
      px      :     0.005853
      py      :     0.005853
      dz2     :     0.009324  d :     0.004070
      dxz     :    -0.002802
      dyz     :    -0.002802
      dx2y2   :     0.000174
      dxy     :     0.000176
      f0      :     0.000231  f :    -0.000008
      f+1     :    -0.000122
      f-1     :    -0.000122
      f+2     :     0.000002
      f-2     :     0.000002
      f+3     :    -0.000000
      f-3     :    -0.000000
      g0      :     0.000001  g :     0.000000
      g+1     :    -0.000000
      g-1     :    -0.000000
      g+2     :    -0.000000
      g-2     :    -0.000000
      g+3     :     0.000000
      g-3     :     0.000000
      g+4     :    -0.000000
      g-4     :    -0.000000
  1 Cls       :    -0.003582  s :    -0.003582
      pz      :     0.166450  p :     0.161626
      px      :    -0.002412
      py      :    -0.002412
      dz2     :     0.000167  d :    -0.000824
      dxz     :    -0.000388
      dyz     :    -0.000388
      dx2y2   :    -0.000107
      dxy     :    -0.000108
      f0      :    -0.000079  f :    -0.000476
      f+1     :    -0.000130
      f-1     :    -0.000130
      f+2     :    -0.000068
      f-2     :    -0.000070
      f+3     :     0.000000
      f-3     :     0.000000


                     *******************************
                     * LOEWDIN POPULATION ANALYSIS *
                     *******************************

-------------------------------------------
LOEWDIN ATOMIC CHARGES AND SPIN POPULATIONS
-------------------------------------------
   0 Zn:    0.218975    0.778415
   1 Cl:   -0.218975    0.221585

----------------------------------------------------
LOEWDIN REDUCED ORBITAL CHARGES AND SPIN POPULATIONS
----------------------------------------------------
CHARGE
  0 Zns       :     6.878628  s :     6.878628
      pz      :     4.476588  p :    12.648468
      px      :     4.085940
      py      :     4.085940
      dz2     :     2.114489  d :    10.231454
      dxz     :     2.059742
      dyz     :     2.059742
      dx2y2   :     1.998741
      dxy     :     1.998740
      f0      :     0.012291  f :     0.022392
      f+1     :     0.005043
      f-1     :     0.005043
      f+2     :     0.000008
      f-2     :     0.000008
      f+3     :     0.000000
      f-3     :     0.000000
      g0      :     0.000049  g :     0.000083
      g+1     :     0.000017
      g-1     :     0.000017
      g+2     :     0.000000
      g-2     :     0.000000
      g+3     :     0.000000
      g-3     :     0.000000
      g+4     :     0.000000
      g-4     :     0.000000
  1 Cls       :     5.729530  s :     5.729530
      pz      :     3.658336  p :    11.312689
      px      :     3.827176
      py      :     3.827176
      dz2     :     0.100638  d :     0.126048
      dxz     :     0.012117
      dyz     :     0.012117
      dx2y2   :     0.000588
      dxy     :     0.000588
      f0      :     0.029451  f :     0.050708
      f+1     :     0.009966
      f-1     :     0.009966
      f+2     :     0.000663
      f-2     :     0.000663
      f+3     :     0.000000
      f-3     :     0.000000

SPIN
  0 Zns       :     0.492811  s :     0.492811
      pz      :     0.264330  p :     0.276642
      px      :     0.006156
      py      :     0.006156
      dz2     :     0.014626  d :     0.006787
      dxz     :    -0.003943
      dyz     :    -0.003943
      dx2y2   :     0.000023
      dxy     :     0.000025
      f0      :     0.002236  f :     0.002167
      f+1     :    -0.000041
      f-1     :    -0.000041
      f+2     :     0.000006
      f-2     :     0.000006
      f+3     :     0.000000
      f-3     :     0.000000
      g0      :     0.000009  g :     0.000008
      g+1     :    -0.000000
      g-1     :    -0.000000
      g+2     :    -0.000000
      g-2     :    -0.000000
      g+3     :     0.000000
      g-3     :     0.000000
      g+4     :    -0.000000
      g-4     :    -0.000000
  1 Cls       :     0.036325  s :     0.036325
      pz      :     0.164987  p :     0.161890
      px      :    -0.001549
      py      :    -0.001549
      dz2     :     0.023675  d :     0.022847
      dxz     :    -0.000393
      dyz     :    -0.000393
      dx2y2   :    -0.000020
      dxy     :    -0.000021
      f0      :     0.001001  f :     0.000523
      f+1     :    -0.000230
      f-1     :    -0.000230
      f+2     :    -0.000008
      f-2     :    -0.000009
      f+3     :     0.000000
      f-3     :     0.000000


                      *****************************
                      * MAYER POPULATION ANALYSIS *
                      *****************************

  NA   - Mulliken gross atomic population
  ZA   - Total nuclear charge
  QA   - Mulliken gross atomic charge
  VA   - Mayer's total valence
  BVA  - Mayer's bonded valence
  FA   - Mayer's free valence

  ATOM       NA         ZA         QA         VA         BVA        FA
  0 Zn    29.5031    30.0000     0.4969     1.6328     0.8553     0.7776
  1 Cl    17.4969    17.0000    -0.4969     0.8832     0.8553     0.0279

  Mayer bond orders larger than 0.100000
B(  0-Zn,  1-Cl) :   0.8553 

-------
TIMINGS
-------

Total SCF time: 0 days 0 hours 0 min 2 sec 

Total time                  ....       2.477 sec
Sum of individual times     ....       2.351 sec  ( 94.9%)

Fock matrix formation       ....       1.987 sec  ( 80.2%)
  Split-RI-J                ....       1.494 sec  ( 75.2% of F)
  XC integration            ....       0.446 sec  ( 22.4% of F)
    Basis function eval.    ....       0.056 sec  ( 12.5% of XC)
    Density eval.           ....       0.058 sec  ( 13.1% of XC)
    XC-Functional eval.     ....       0.012 sec  (  2.7% of XC)
    XC-Potential eval.      ....       0.174 sec  ( 39.0% of XC)
Diagonalization             ....       0.062 sec  (  2.5%)
Density matrix formation    ....       0.008 sec  (  0.3%)
Population analysis         ....       0.007 sec  (  0.3%)
Initial guess               ....       0.102 sec  (  4.1%)
Orbital Transformation      ....       0.000 sec  (  0.0%)
Orbital Orthonormalization  ....       0.000 sec  (  0.0%)
DIIS solution               ....       0.020 sec  (  0.8%)
Grid generation             ....       0.164 sec  (  6.6%)


-------------------------------------------------------------------------------
                          DFT DISPERSION CORRECTION                            
                                                                               
                              DFTD3 V3.1  Rev 1                                
                          USING Becke-Johnson damping                          
-------------------------------------------------------------------------------
The SCAN functional is recognized
Active option DFTDOPT                   ...         4   

molecular C6(AA) [au] = 583.909004 


            DFT-D V3
 parameters
 s6 scaling factor         :     1.0000 
 a1 scaling factor         :     0.5380 
 s8 scaling factor         :     0.0000 
 a2 scaling factor         :     5.4200 
 ad hoc parameters k1-k3   :    16.0000     1.3333    -4.0000 

 Edisp/kcal,au: -0.116088773358  -0.000184999216 
 E6   /kcal   :  -0.116088773 
 E8   /kcal   :  -0.000000000 
 % E8         :   0.000000000 

-------------------------   ----------------
Dispersion correction           -0.000184999
-------------------------   ----------------


-------------------------   --------------------
FINAL SINGLE POINT ENERGY     -2239.891638367408
-------------------------   --------------------


                            ***************************************
                            *     ORCA property calculations      *
                            ***************************************

                                    ---------------------
                                    Active property flags
                                    ---------------------
   (+) Dipole Moment


------------------------------------------------------------------------------
                       ORCA ELECTRIC PROPERTIES CALCULATION
------------------------------------------------------------------------------

Dipole Moment Calculation                       ... on
Quadrupole Moment Calculation                   ... off
Polarizability Calculation                      ... off
GBWName                                         ... 57_ZnCl.gbw
Electron density file                           ... 57_ZnCl.scfp
The origin for moment calculation is the CENTER OF MASS  = ( 0.000000,  0.000000  1.282266)

-------------
DIPOLE MOMENT
-------------
                                X             Y             Z
Electronic contribution:      0.00000       0.00000      -3.00741
Nuclear contribution   :      0.00000       0.00000       1.94334
                        -----------------------------------------
Total Dipole Moment    :      0.00000       0.00000      -1.06408
                        -----------------------------------------
Magnitude (a.u.)       :      1.06408
Magnitude (Debye)      :      2.70467



--------------------
Rotational spectrum 
--------------------
 
Rotational constants in cm-1:     0.000000     0.156288     0.156288 
Rotational constants in MHz :     0.000000  4685.390286  4685.390286 

 Dipole components along the rotational axes: 
x,y,z [a.u.] :    -1.064077     0.000000     0.000000 
x,y,z [Debye]:    -2.704670     0.000000     0.000000 

 

Timings for individual modules:

Sum of individual times         ...        6.095 sec (=   0.102 min)
GTO integral calculation        ...        3.280 sec (=   0.055 min)  53.8 %
SCF iterations                  ...        2.815 sec (=   0.047 min)  46.2 %
                             ****ORCA TERMINATED NORMALLY****
TOTAL RUN TIME: 0 days 0 hours 0 minutes 6 seconds 677 msec
