
                                 *****************
                                 * O   R   C   A *
                                 *****************

           --- An Ab Initio, DFT and Semiempirical electronic structure package ---

                  #######################################################
                  #                        -***-                        #
                  #          Department of theory and spectroscopy      #
                  #               Directorship: Frank Neese             #
                  #        Max Planck Institute fuer Kohlenforschung    #
                  #                Kaiser Wilhelm Platz 1               #
                  #                 D-45470 Muelheim/Ruhr               #
                  #                      Germany                        #
                  #                                                     #
                  #                  All rights reserved                #
                  #                        -***-                        #
                  #######################################################


                         Program Version 4.2.0 -  RELEASE  -


 With contributions from (in alphabetic order):
   Daniel Aravena         : Magnetic Suceptibility
   Michael Atanasov       : Ab Initio Ligand Field Theory (pilot matlab implementation)
   Alexander A. Auer      : GIAO ZORA, VPT2
   Ute Becker             : Parallelization
   Giovanni Bistoni       : ED, misc. LED, open-shell LED, HFLED
   Martin Brehm           : Molecular dynamics
   Dmytro Bykov           : SCF Hessian
   Vijay G. Chilkuri      : MRCI spin determinant printing, contributions to CSF-ICE
   Dipayan Datta          : RHF DLPNO-CCSD density
   Achintya Kumar Dutta   : EOM-CC, STEOM-CC
   Dmitry Ganyushin       : Spin-Orbit,Spin-Spin,Magnetic field MRCI
   Miquel Garcia          : C-PCM Hessian, Gaussian charge scheme
   Yang Guo               : DLPNO-NEVPT2, CIM, IAO-localization
   Andreas Hansen         : Spin unrestricted coupled pair/coupled cluster methods
   Benjamin Helmich-Paris : CASSCF linear response (MC-RPA)
   Lee Huntington         : MR-EOM, pCC
   Robert Izsak           : Overlap fitted RIJCOSX, COSX-SCS-MP3, EOM
   Christian Kollmar      : KDIIS, OOCD, Brueckner-CCSD(T), CCSD density
   Simone Kossmann        : Meta GGA functionals, TD-DFT gradient, OOMP2, MP2 Hessian
   Martin Krupicka        : AUTO-CI
   Lucas Lang             : DCDCAS
   Dagmar Lenk            : GEPOL surface, SMD
   Dimitrios Liakos       : Extrapolation schemes; Compound Job, initial MDCI parallelization
   Dimitrios Manganas     : Further ROCIS development; embedding schemes
   Dimitrios Pantazis     : SARC Basis sets
   Taras Petrenko         : DFT Hessian,TD-DFT gradient, ASA, ECA, R-Raman, ABS, FL, XAS/XES, NRVS
   Peter Pinski           : DLPNO-MP2, DLPNO-MP2 Gradient
   Christoph Reimann      : Effective Core Potentials
   Marius Retegan         : Local ZFS, SOC
   Christoph Riplinger    : Optimizer, TS searches, QM/MM, DLPNO-CCSD(T), (RO)-DLPNO pert. Triples
   Tobias Risthaus        : Range-separated hybrids, TD-DFT gradient, RPA, STAB
   Michael Roemelt        : Original ROCIS implementation
   Masaaki Saitow         : Open-shell DLPNO-CCSD energy and density
   Barbara Sandhoefer     : DKH picture change effects
   Avijit Sen             : IP-ROCIS
   Kantharuban Sivalingam : CASSCF convergence, NEVPT2, FIC-MRCI
   Bernardo de Souza      : ESD, SOC TD-DFT
   Georgi Stoychev        : AutoAux, RI-MP2 NMR
   Willem Van den Heuvel  : Paramagnetic NMR
   Boris Wezisla          : Elementary symmetry handling
   Frank Wennmohs         : Technical directorship


 We gratefully acknowledge several colleagues who have allowed us to
 interface, adapt or use parts of their codes:
   Stefan Grimme, W. Hujo, H. Kruse,             : VdW corrections, initial TS optimization,
                  C. Bannwarth                     DFT functionals, gCP, sTDA/sTD-DF
   Ed Valeev, F. Pavosevic, A. Kumar             : LibInt (2-el integral package), F12 methods
   Garnet Chan, S. Sharma, J. Yang, R. Olivares  : DMRG
   Ulf Ekstrom                                   : XCFun DFT Library
   Mihaly Kallay                                 : mrcc  (arbitrary order and MRCC methods)
   Andreas Klamt, Michael Diedenhofen            : otool_cosmo (COSMO solvation model)
   Jiri Pittner, Ondrej Demel                    : Mk-CCSD
   Frank Weinhold                                : gennbo (NPA and NBO analysis)
   Christopher J. Cramer and Donald G. Truhlar   : smd solvation model
   Lars Goerigk                                  : TD-DFT with DH, B97 family of functionals
   V. Asgeirsson, H. Jonsson                     : NEB implementation
   FAccTs GmbH                                   : IRC, NEB, NEB-TS, Multilevel, MM, QM/MM, CI optimization
   S Lehtola, MJT Oliveira, MAL Marques          : LibXC Library


 Your calculation uses the libint2 library for the computation of 2-el integrals
 For citations please refer to: http://libint.valeyev.net

 Your ORCA version has been built with support for libXC version: 4.2.3
 For citations please refer to: https://tddft.org/programs/libxc/

 This ORCA versions uses:
   CBLAS   interface :  Fast vector & matrix operations
   LAPACKE interface :  Fast linear algebra routines
   SCALAPACK package :  Parallel linear algebra routines


Your calculation utilizes the atom-pairwise dispersion correction
with the Becke-Johnson damping scheme (D3BJ)
Cite in your paper:
S.Grimme, S.Ehrlich, L.Goerigk, J Comput Chem, (2011), 32, 1456–1465 
S.Grimme, J.Antony, S.Ehrlich and H.Krieg, J.Chem.Phys., 132, (2010), 154104 
   

----- Orbital basis set information -----
Your calculation utilizes the basis: aug-cc-pVTZ 
    H, B-Ne : Obtained from the ccRepo (grant-hill.group.shef.ac.uk/ccrepo) Feb. 2017
              R. A. Kendall, T. H. Dunning, Jr., R. J. Harrison, J. Chem. Phys. 96, 6796 (1992)
         He : Obtained from the ccRepo (grant-hill.group.shef.ac.uk/ccrepo) Feb. 2017
              D. E. Woon, T. H. Dunning, Jr., J. Chem. Phys. 100, 2975 (1994)
  Li-Be, Na : Obtained from the ccRepo (grant-hill.group.shef.ac.uk/ccrepo) Feb. 2017
              B. P. Prascher, D. E. Woon, K. A. Peterson, T. H. Dunning, Jr., A. K. Wilson, Theor. Chem. Acc. 128, 69 (2011)
         Mg : Obtained from the Peterson Research Group Website (tyr0.chem.wsu.edu/~kipeters) Feb. 2017
              B. P. Prascher, D. E. Woon, K. A. Peterson, T. H. Dunning, Jr., A. K. Wilson, Theor. Chem. Acc. 128, 69 (2011)
      Al-Ar : Obtained from the ccRepo (grant-hill.group.shef.ac.uk/ccrepo) Feb. 2017
              D. E. Woon, T. H. Dunning, Jr., J. Chem. Phys. 98, 1358 (1993)
      Sc-Zn : Obtained from the ccRepo (grant-hill.group.shef.ac.uk/ccrepo) Feb. 2017
              N. B. Balabanov, K. A. Peterson, J. Chem. Phys. 123, 064107 (2005)
              N. B. Balabanov, K. A. Peterson, J. Chem. Phys. 125, 074110 (2006)
      Ga-Kr : Obtained from the ccRepo (grant-hill.group.shef.ac.uk/ccrepo) Feb. 2017
              A. K. Wilson, D. E. Woon, K. A. Peterson, T. H. Dunning, Jr., J. Chem. Phys. 110, 7667 (1999)
     Ag, Au : Obtained from the Peterson Research Group Website (tyr0.chem.wsu.edu/~kipeters) Feb. 2017
              K. A. Peterson, C. Puzzarini, Theor. Chem. Acc. 114, 283 (2005)

----- AuxJ basis set information -----
Your calculation utilizes the auxiliary basis: def2/J
   F. Weigend, Phys. Chem. Chem. Phys. 8, 1057 (2006).

================================================================================
                                        WARNINGS
                       Please study these warnings very carefully!
================================================================================


WARNING: The SCAN functional is very grid-sensitive!
         Use at least GRID5 and a higher intacc

INFO   : the flag for use of LIBINT has been found!

================================================================================
                                       INPUT FILE
================================================================================
NAME = 60_ZnS.in
|  1> #
|  2> # 60_ZnS scanfunc/aug-cc-pvtz
|  3> #
|  4> ! scanfunc d3bj aug-cc-pvtz def2/j grid4 nofinalgrid
|  5> 
|  6> *xyz 0 1
|  7>   Zn  0.00000000000000      0.00000000000000     -0.02757018403008
|  8>   S   0.00000000000000      0.00000000000000      2.02757018403008
|  9> *
| 10> 
| 11> %pal
| 12> nprocs 24
| 13> end
| 14> 
| 15> 
| 16>                          ****END OF INPUT****
================================================================================

                       ****************************
                       * Single Point Calculation *
                       ****************************

---------------------------------
CARTESIAN COORDINATES (ANGSTROEM)
---------------------------------
  Zn     0.000000    0.000000   -0.027570
  S      0.000000    0.000000    2.027570

----------------------------
CARTESIAN COORDINATES (A.U.)
----------------------------
  NO LB      ZA    FRAG     MASS         X           Y           Z
   0 Zn   30.0000    0    65.380    0.000000    0.000000   -0.052100
   1 S    16.0000    0    32.060    0.000000    0.000000    3.831552

--------------------------------
INTERNAL COORDINATES (ANGSTROEM)
--------------------------------
 Zn     0   0   0     0.000000000000     0.00000000     0.00000000
 S      1   0   0     2.055140368060     0.00000000     0.00000000

---------------------------
INTERNAL COORDINATES (A.U.)
---------------------------
 Zn     0   0   0     0.000000000000     0.00000000     0.00000000
 S      1   0   0     3.883652462400     0.00000000     0.00000000

---------------------
BASIS SET INFORMATION
---------------------
There are 2 groups of distinct atoms

 Group   1 Type Zn  : 116s77p23d3f2g contracted to 8s7p5d3f2g pattern {19191919191911/151515151511/77711/111/11}
 Group   2 Type S   : 42s17p3d2f contracted to 6s5p3d2f pattern {131313111/77111/111/11}

Atom   0Zn   basis set group =>   1
Atom   1S    basis set group =>   2
---------------------------------
AUXILIARY/J BASIS SET INFORMATION
---------------------------------
There are 2 groups of distinct atoms

 Group   1 Type Zn  : 19s5p5d3f3g contracted to 8s5p5d2f3g pattern {121111111/11111/11111/21/111}
 Group   2 Type S   : 14s5p5d2f1g contracted to 8s4p3d1f1g pattern {71111111/2111/311/2/1}

Atom   0Zn   basis set group =>   1
Atom   1S    basis set group =>   2


           ************************************************************
           *        Program running with 24 parallel MPI-processes    *
           *              working on a common directory               *
           ************************************************************
------------------------------------------------------------------------------
                           ORCA GTO INTEGRAL CALCULATION
                           -- RI-GTO INTEGRALS CHOSEN --
------------------------------------------------------------------------------

                         BASIS SET STATISTICS AND STARTUP INFO

Gaussian basis set:
 # of primitive gaussian shells          ...  285
 # of primitive gaussian functions       ...  623
 # of contracted shells                  ...   41
 # of contracted basis functions         ...  143
 Highest angular momentum                ...    4
 Maximum contraction depth               ...   19
Auxiliary gaussian basis set:
 # of primitive gaussian shells          ...   62
 # of primitive gaussian functions       ...  184
 # of contracted shells                  ...   40
 # of contracted aux-basis functions     ...  140
 Highest angular momentum                ...    4
 Maximum contraction depth               ...   12
Ratio of auxiliary to basis functions    ...  0.98
Integral package used                  ... LIBINT
 One Electron integrals                  ... done
 Ordering auxiliary basis shells         ... done
 Integral threshhold             Thresh  ...  1.000e-10
 Primitive cut-off               TCut    ...  1.000e-11
 Pre-screening matrix                    ... done
 Shell pair data                         ... 
 Ordering of the shell pairs             ... done (   0.000 sec) 861 of 861 pairs
 Determination of significant pairs      ... done (   0.000 sec)
 Creation of shell pair data             ... done (   0.001 sec)
 Storage of shell pair data              ... done (   0.002 sec)
 Shell pair data done in (   0.003 sec)
 Computing two index integrals           ... done
 Cholesky decomposition of the V-matrix  ... done


Timings:
 Total evaluation time                   ...   2.649 sec (  0.044 min)
 One electron matrix time                ...   0.051 sec (  0.001 min) =  1.9%
 Schwartz matrix evaluation time         ...   2.567 sec (  0.043 min) = 96.9%
 Two index repulsion integral time       ...   0.001 sec (  0.000 min) =  0.0%
 Cholesky decomposition of V             ...   0.001 sec (  0.000 min) =  0.0%
 Three index repulsion integral time     ...   0.000 sec (  0.000 min) =  0.0%



           ************************************************************
           *        Program running with 24 parallel MPI-processes    *
           *              working on a common directory               *
           ************************************************************
-------------------------------------------------------------------------------
                                 ORCA SCF
-------------------------------------------------------------------------------

------------
SCF SETTINGS
------------
Hamiltonian:
 Density Functional     Method          .... DFT(GTOs)
 Exchange Functional    Exchange        .... SCAN
 Correlation Functional Correlation     .... SCAN
 Gradients option       PostSCFGGA      .... off
   Density functional embedding theory  .... OFF
   NL short-range parameter             ....  6.400000
 RI-approximation to the Coulomb term is turned on
   Number of auxiliary basis functions  .... 140


General Settings:
 Integral files         IntName         .... 60_ZnS
 Hartree-Fock type      HFTyp           .... RHF
 Total Charge           Charge          ....    0
 Multiplicity           Mult            ....    1
 Number of Electrons    NEL             ....   46
 Basis Dimension        Dim             ....  143
 Nuclear Repulsion      ENuc            ....    123.5949932820 Eh

Convergence Acceleration:
 DIIS                   CNVDIIS         .... on
   Start iteration      DIISMaxIt       ....    12
   Startup error        DIISStart       ....  0.200000
   # of expansion vecs  DIISMaxEq       ....     5
   Bias factor          DIISBfac        ....   1.050
   Max. coefficient     DIISMaxC        ....  10.000
 Newton-Raphson         CNVNR           .... off
 SOSCF                  CNVSOSCF        .... off
 Level Shifting         CNVShift        .... on
   Level shift para.    LevelShift      ....    0.2500
   Turn off err/grad.   ShiftErr        ....    0.0010
 Zerner damping         CNVZerner       .... off
 Static damping         CNVDamp         .... on
   Fraction old density DampFac         ....    0.7000
   Max. Damping (<1)    DampMax         ....    0.9800
   Min. Damping (>=0)   DampMin         ....    0.0000
   Turn off err/grad.   DampErr         ....    0.1000
 Fernandez-Rico         CNVRico         .... off

SCF Procedure:
 Maximum # iterations   MaxIter         ....   125
 SCF integral mode      SCFMode         .... Direct
   Integral package                     .... LIBINT
 Reset frequency        DirectResetFreq ....    20
 Integral Threshold     Thresh          ....  1.000e-10 Eh
 Primitive CutOff       TCut            ....  1.000e-11 Eh

Convergence Tolerance:
 Convergence Check Mode ConvCheckMode   .... Total+1el-Energy
 Convergence forced     ConvForced      .... 0
 Energy Change          TolE            ....  1.000e-06 Eh
 1-El. energy change                    ....  1.000e-03 Eh
 DIIS Error             TolErr          ....  1.000e-06


Diagonalization of the overlap matrix:
Smallest eigenvalue                        ... 1.666e-04
Time for diagonalization                   ...    0.006 sec
Threshold for overlap eigenvalues          ... 1.000e-08
Number of eigenvalues below threshold      ... 0
Time for construction of square roots      ...    0.003 sec
Total time needed                          ...    0.009 sec

-------------------
DFT GRID GENERATION
-------------------

General Integration Accuracy     IntAcc      ...  4.670
Radial Grid Type                 RadialGrid  ... Gauss-Chebyshev
Angular Grid (max. acc.)         AngularGrid ... Lebedev-302
Angular grid pruning method      GridPruning ... 3 (G Style)
Weight generation scheme         WeightScheme... Becke
Basis function cutoff            BFCut       ...    1.0000e-10
Integration weight cutoff        WCut        ...    1.0000e-14
Grids for H and He will be reduced by one unit

# of grid points (after initial pruning)     ...  16486 (   0.0 sec)
# of grid points (after weights+screening)   ...  16458 (   0.0 sec)
nearest neighbour list constructed           ...    0.0 sec
Grid point re-assignment to atoms done       ...    0.0 sec
Grid point division into batches done        ...    0.1 sec
Reduced shell lists constructed in    0.1 sec

Total number of grid points                  ...    16458
Total number of batches                      ...      258
Average number of points per batch           ...       63
Average number of grid points per atom       ...     8229
Average number of shells per batch           ...    14.58 (35.57%)
Average number of basis functions per batch  ...    34.58 (24.18%)
Average number of large shells per batch     ...     7.17 (49.14%)
Average number of large basis fcns per batch ...    17.00 (49.16%)
Maximum spatial batch extension              ...  23.02, 23.02, 16.62 au
Average spatial batch extension              ...   0.79,  0.78,  0.60 au

Time for grid setup =    0.166 sec

------------------------------
INITIAL GUESS: MODEL POTENTIAL
------------------------------
Loading Hartree-Fock densities                     ... done
Calculating cut-offs                               ... done
Setting up the integral package                    ... done
Initializing the effective Hamiltonian             ... done
Starting the Coulomb interaction                   ... done (   0.0 sec)
Reading the grid                                   ... done
Mapping shells                                     ... done
Starting the XC term evaluation                    ... done (   0.0 sec)
  promolecular density results
     # of electrons  =     46.000010731
     EX              =   -106.996948312
     EC              =     -0.820073791
     EX+EC           =   -107.817022103
Transforming the Hamiltonian                       ... done (   0.0 sec)
Diagonalizing the Hamiltonian                      ... done (   0.0 sec)
Back transforming the eigenvectors                 ... done (   0.0 sec)
Now organizing SCF variables                       ... done
                      ------------------
                      INITIAL GUESS DONE (   0.3 sec)
                      ------------------
--------------
SCF ITERATIONS
--------------
ITER       Energy         Delta-E        Max-DP      RMS-DP      [F,P]     Damp
               ***  Starting incremental Fock matrix formation  ***
  0  -2177.5184721886   0.000000000000 0.25508012  0.00436597  0.4971088 0.7000
  1  -2177.7305326498  -0.212060461224 0.19182477  0.00243560  0.1648568 0.7000
                               ***Turning on DIIS***
  2  -2177.7614118925  -0.030879242769 0.15848690  0.00317519  0.0683927 0.0000
  3  -2177.8542141213  -0.092802228799 0.05707329  0.00062562  0.1202943 0.7000
  4  -2177.8711533668  -0.016939245423 0.17601498  0.00204374  0.0766175 0.0000
  5  -2177.8848815342  -0.013728167455 0.03120255  0.00062478  0.0446406 0.0000
  6  -2177.8883047378  -0.003423203590 0.02931664  0.00037676  0.0284346 0.0000
  7  -2177.8893514796  -0.001046741754 0.01447284  0.00015024  0.0129832 0.0000
  8  -2177.8896769684  -0.000325488859 0.00947305  0.00009097  0.0081041 0.0000
  9  -2177.8897697115  -0.000092743080 0.00444101  0.00005070  0.0038204 0.0000
 10  -2177.8897894720  -0.000019760509 0.00215599  0.00003007  0.0019367 0.0000
 11  -2177.8897952865  -0.000005814440 0.00100829  0.00001596  0.0011212 0.0000
 12  -2177.8897971625  -0.000001876065 0.00189077  0.00001846  0.0007107 0.0000
 13  -2177.8897980674  -0.000000904915 0.00017223  0.00000219  0.0000908 0.0000
 14  -2177.8897978006   0.000000266861 0.00005601  0.00000096  0.0001090 0.0000
                 **** Energy Check signals convergence ****

               *****************************************************
               *                     SUCCESS                       *
               *           SCF CONVERGED AFTER  15 CYCLES          *
               *****************************************************


----------------
TOTAL SCF ENERGY
----------------

Total Energy       :        -2177.88979809 Eh          -59263.39430 eV

Components:
Nuclear Repulsion  :          123.59499328 Eh            3363.19075 eV
Electronic Energy  :        -2301.48479137 Eh          -62626.58505 eV
One Electron Energy:        -3278.78312215 Eh          -89220.22462 eV
Two Electron Energy:          977.29833078 Eh           26593.63958 eV

Virial components:
Potential Energy   :        -4353.11199770 Eh         -118454.19955 eV
Kinetic Energy     :         2175.22219961 Eh           59190.80525 eV
Virial Ratio       :            2.00122636


DFT components:
N(Alpha)           :       23.000009309577 electrons
N(Beta)            :       23.000009309577 electrons
N(Total)           :       46.000018619155 electrons
E(X)               :      -95.056243726158 Eh       
E(C)               :       -2.035069753078 Eh       
E(XC)              :      -97.091313479236 Eh       
DFET-embed. en.    :        0.000000000000 Eh       

---------------
SCF CONVERGENCE
---------------

  Last Energy change         ...   -2.9020e-07  Tolerance :   1.0000e-06
  Last MAX-Density change    ...    5.5295e-05  Tolerance :   1.0000e-05
  Last RMS-Density change    ...    8.4432e-07  Tolerance :   1.0000e-06
  Last DIIS Error            ...    2.4466e-05  Tolerance :   1.0000e-06

             **** THE GBW FILE WAS UPDATED (60_ZnS.gbw) ****
             **** DENSITY FILE WAS UPDATED (60_ZnS.scfp) ****
             **** ENERGY FILE WAS UPDATED (60_ZnS.en.tmp) ****
             **** THE GBW FILE WAS UPDATED (60_ZnS.gbw) ****
             **** DENSITY FILE WAS UPDATED (60_ZnS.scfp) ****
----------------
ORBITAL ENERGIES
----------------

  NO   OCC          E(Eh)            E(eV) 
   0   2.0000    -346.847135     -9438.1904 
   1   2.0000     -88.633936     -2411.8520 
   2   2.0000     -42.071286     -1144.8179 
   3   2.0000     -37.056811     -1008.3671 
   4   2.0000     -37.056398     -1008.3558 
   5   2.0000     -37.056398     -1008.3558 
   6   2.0000      -7.838013      -213.2832 
   7   2.0000      -5.778823      -157.2498 
   8   2.0000      -5.772472      -157.0769 
   9   2.0000      -5.772472      -157.0769 
  10   2.0000      -4.860232      -132.2536 
  11   2.0000      -3.227322       -87.8199 
  12   2.0000      -3.223795       -87.7239 
  13   2.0000      -3.223795       -87.7239 
  14   2.0000      -0.622561       -16.9408 
  15   2.0000      -0.481851       -13.1118 
  16   2.0000      -0.481851       -13.1118 
  17   2.0000      -0.477740       -13.0000 
  18   2.0000      -0.474783       -12.9195 
  19   2.0000      -0.474768       -12.9191 
  20   2.0000      -0.305877        -8.3233 
  21   2.0000      -0.211550        -5.7566 
  22   2.0000      -0.211550        -5.7566 
  23   0.0000      -0.180648        -4.9157 
  24   0.0000      -0.040705        -1.1076 
  25   0.0000      -0.040705        -1.1076 
  26   0.0000       0.009124         0.2483 
  27   0.0000       0.021044         0.5726 
  28   0.0000       0.034040         0.9263 
  29   0.0000       0.034040         0.9263 
  30   0.0000       0.079557         2.1648 
  31   0.0000       0.086762         2.3609 
  32   0.0000       0.104488         2.8433 
  33   0.0000       0.104488         2.8433 
  34   0.0000       0.127283         3.4636 
  35   0.0000       0.154244         4.1972 
  36   0.0000       0.154269         4.1979 
  37   0.0000       0.182636         4.9698 
  38   0.0000       0.185689         5.0529 
  39   0.0000       0.185689         5.0529 
  40   0.0000       0.217313         5.9134 
  41   0.0000       0.225639         6.1399 
  42   0.0000       0.225639         6.1399 
  43   0.0000       0.259209         7.0534 
  44   0.0000       0.259211         7.0535 
  45   0.0000       0.321187         8.7400 
  46   0.0000       0.341338         9.2883 
  47   0.0000       0.341338         9.2883 
  48   0.0000       0.401595        10.9280 
  49   0.0000       0.534209        14.5366 
  50   0.0000       0.534209        14.5366 
  51   0.0000       0.570858        15.5338 
  52   0.0000       0.579958        15.7815 
  53   0.0000       0.579958        15.7815 
  54   0.0000       0.599689        16.3184 
  55   0.0000       0.599860        16.3230 
  56   0.0000       0.648160        17.6373 
  57   0.0000       0.698327        19.0024 
  58   0.0000       0.727726        19.8024 
  59   0.0000       0.727763        19.8034 
  60   0.0000       0.765441        20.8287 
  61   0.0000       0.765441        20.8287 
  62   0.0000       0.827852        22.5270 
  63   0.0000       0.828234        22.5374 
  64   0.0000       0.830572        22.6010 
  65   0.0000       0.831845        22.6356 
  66   0.0000       0.831845        22.6356 
  67   0.0000       0.942902        25.6577 
  68   0.0000       0.942902        25.6577 
  69   0.0000       1.018482        27.7143 
  70   0.0000       1.065606        28.9966 
  71   0.0000       1.065606        28.9966 
  72   0.0000       1.267334        34.4859 
  73   0.0000       1.470695        40.0197 
  74   0.0000       1.627277        44.2805 
  75   0.0000       1.627277        44.2805 
  76   0.0000       1.710413        46.5427 
  77   0.0000       1.710521        46.5456 
  78   0.0000       1.794769        48.8381 
  79   0.0000       1.794769        48.8381 
  80   0.0000       1.855071        50.4791 
  81   0.0000       1.855082        50.4793 
  82   0.0000       1.962440        53.4007 
  83   0.0000       1.962440        53.4007 
  84   0.0000       2.015303        54.8392 
  85   0.0000       2.065476        56.2045 
  86   0.0000       2.166350        58.9494 
  87   0.0000       2.166350        58.9494 
  88   0.0000       2.181216        59.3539 
  89   0.0000       2.181216        59.3539 
  90   0.0000       2.186732        59.5040 
  91   0.0000       2.186738        59.5042 
  92   0.0000       2.290154        62.3182 
  93   0.0000       2.451834        66.7178 
  94   0.0000       2.451834        66.7178 
  95   0.0000       2.741216        74.5923 
  96   0.0000       2.747548        74.7646 
  97   0.0000       2.747695        74.7686 
  98   0.0000       2.823584        76.8336 
  99   0.0000       2.823584        76.8336 
 100   0.0000       3.198233        87.0284 
 101   0.0000       4.175890       113.6317 
 102   0.0000       4.300154       117.0131 
 103   0.0000       4.300154       117.0131 
 104   0.0000       4.925400       134.0270 
 105   0.0000       4.925400       134.0270 
 106   0.0000       4.933091       134.2362 
 107   0.0000       4.975873       135.4004 
 108   0.0000       4.975959       135.4027 
 109   0.0000       5.043471       137.2398 
 110   0.0000       5.161997       140.4651 
 111   0.0000       5.161997       140.4651 
 112   0.0000       5.566705       151.4777 
 113   0.0000       7.378231       200.7719 
 114   0.0000       7.378456       200.7780 
 115   0.0000       7.379836       200.8155 
 116   0.0000       7.379836       200.8155 
 117   0.0000       7.384308       200.9372 
 118   0.0000       7.384701       200.9479 
 119   0.0000       7.409575       201.6248 
 120   0.0000       7.409575       201.6248 
 121   0.0000       7.499984       204.0849 
 122   0.0000      10.216821       278.0138 
 123   0.0000      10.216822       278.0139 
 124   0.0000      10.288122       279.9540 
 125   0.0000      10.288122       279.9540 
 126   0.0000      10.497070       285.6398 
 127   0.0000      15.952434       434.0878 
 128   0.0000      15.952434       434.0878 
 129   0.0000      15.978774       434.8045 
 130   0.0000      15.978830       434.8061 
 131   0.0000      16.074010       437.3960 
 132   0.0000      16.074010       437.3960 
 133   0.0000      16.166990       439.9262 
 134   0.0000      19.845491       540.0233 
 135   0.0000      19.846109       540.0401 
 136   0.0000      19.846271       540.0445 
 137   0.0000      19.846271       540.0445 
 138   0.0000      19.848520       540.1057 
 139   0.0000      19.848535       540.1061 
 140   0.0000      19.861822       540.4677 
 141   0.0000      19.861822       540.4677 
 142   0.0000      19.894935       541.3687 

                    ********************************
                    * MULLIKEN POPULATION ANALYSIS *
                    ********************************

-----------------------
MULLIKEN ATOMIC CHARGES
-----------------------
   0 Zn:    0.492034
   1 S :   -0.492034
Sum of atomic charges:    0.0000000

--------------------------------
MULLIKEN REDUCED ORBITAL CHARGES
--------------------------------
  0 Zns       :     7.101830  s :     7.101830
      pz      :     4.057074  p :    12.434384
      px      :     4.188655
      py      :     4.188655
      dz2     :     1.965351  d :     9.966096
      dxz     :     2.000786
      dyz     :     2.000786
      dx2y2   :     1.999584
      dxy     :     1.999589
      f0      :     0.001695  f :     0.005622
      f+1     :     0.001922
      f-1     :     0.001922
      f+2     :     0.000042
      f-2     :     0.000042
      f+3     :     0.000000
      f-3     :     0.000000
      g0      :     0.000015  g :     0.000034
      g+1     :     0.000010
      g-1     :     0.000010
      g+2     :     0.000000
      g-2     :     0.000000
      g+3     :     0.000000
      g-3     :     0.000000
      g+4     :     0.000000
      g-4     :     0.000000
  1 S s       :     5.938964  s :     5.938964
      pz      :     2.927469  p :    10.514027
      px      :     3.793279
      py      :     3.793279
      dz2     :     0.007365  d :     0.035123
      dxz     :     0.013645
      dyz     :     0.013645
      dx2y2   :     0.000235
      dxy     :     0.000233
      f0      :     0.000238  f :     0.003920
      f+1     :     0.001704
      f-1     :     0.001704
      f+2     :     0.000139
      f-2     :     0.000137
      f+3     :     0.000000
      f-3     :     0.000000


                     *******************************
                     * LOEWDIN POPULATION ANALYSIS *
                     *******************************

----------------------
LOEWDIN ATOMIC CHARGES
----------------------
   0 Zn:    0.296028
   1 S :   -0.296028

-------------------------------
LOEWDIN REDUCED ORBITAL CHARGES
-------------------------------
  0 Zns       :     6.713021  s :     6.713021
      pz      :     4.225183  p :    12.719760
      px      :     4.247288
      py      :     4.247288
      dz2     :     2.101406  d :    10.245608
      dxz     :     2.075624
      dyz     :     2.075624
      dx2y2   :     1.996476
      dxy     :     1.996479
      f0      :     0.010442  f :     0.025477
      f+1     :     0.007451
      f-1     :     0.007451
      f+2     :     0.000067
      f-2     :     0.000067
      f+3     :     0.000000
      f-3     :     0.000000
      g0      :     0.000049  g :     0.000106
      g+1     :     0.000028
      g-1     :     0.000028
      g+2     :     0.000000
      g-2     :     0.000000
      g+3     :     0.000000
      g-3     :     0.000000
      g+4     :     0.000000
      g-4     :     0.000000
  1 S s       :     5.569476  s :     5.569476
      pz      :     3.194666  p :    10.453066
      px      :     3.629200
      py      :     3.629200
      dz2     :     0.123080  d :     0.163552
      dxz     :     0.019250
      dyz     :     0.019250
      dx2y2   :     0.000987
      dxy     :     0.000985
      f0      :     0.062676  f :     0.109934
      f+1     :     0.021160
      f-1     :     0.021160
      f+2     :     0.002470
      f-2     :     0.002469
      f+3     :     0.000000
      f-3     :     0.000000


                      *****************************
                      * MAYER POPULATION ANALYSIS *
                      *****************************

  NA   - Mulliken gross atomic population
  ZA   - Total nuclear charge
  QA   - Mulliken gross atomic charge
  VA   - Mayer's total valence
  BVA  - Mayer's bonded valence
  FA   - Mayer's free valence

  ATOM       NA         ZA         QA         VA         BVA        FA
  0 Zn    29.5080    30.0000     0.4920     1.7680     1.7680     0.0000
  1 S     16.4920    16.0000    -0.4920     1.7680     1.7680    -0.0000

  Mayer bond orders larger than 0.100000
B(  0-Zn,  1-S ) :   1.7680 

-------
TIMINGS
-------

Total SCF time: 0 days 0 hours 0 min 2 sec 

Total time                  ....       2.932 sec
Sum of individual times     ....       2.816 sec  ( 96.1%)

Fock matrix formation       ....       2.475 sec  ( 84.4%)
  Split-RI-J                ....       2.022 sec  ( 81.7% of F)
  XC integration            ....       0.389 sec  ( 15.7% of F)
    Basis function eval.    ....       0.077 sec  ( 19.8% of XC)
    Density eval.           ....       0.047 sec  ( 12.1% of XC)
    XC-Functional eval.     ....       0.015 sec  (  3.8% of XC)
    XC-Potential eval.      ....       0.119 sec  ( 30.5% of XC)
Diagonalization             ....       0.043 sec  (  1.5%)
Density matrix formation    ....       0.005 sec  (  0.2%)
Population analysis         ....       0.004 sec  (  0.1%)
Initial guess               ....       0.103 sec  (  3.5%)
Orbital Transformation      ....       0.000 sec  (  0.0%)
Orbital Orthonormalization  ....       0.000 sec  (  0.0%)
DIIS solution               ....       0.021 sec  (  0.7%)
Grid generation             ....       0.166 sec  (  5.7%)


-------------------------------------------------------------------------------
                          DFT DISPERSION CORRECTION                            
                                                                               
                              DFTD3 V3.1  Rev 1                                
                          USING Becke-Johnson damping                          
-------------------------------------------------------------------------------
The SCAN functional is recognized
Active option DFTDOPT                   ...         4   

molecular C6(AA) [au] = 677.639007 


            DFT-D V3
 parameters
 s6 scaling factor         :     1.0000 
 a1 scaling factor         :     0.5380 
 s8 scaling factor         :     0.0000 
 a2 scaling factor         :     5.4200 
 ad hoc parameters k1-k3   :    16.0000     1.3333    -4.0000 

 Edisp/kcal,au: -0.127608478583  -0.000203357033 
 E6   /kcal   :  -0.127608479 
 E8   /kcal   :  -0.000000000 
 % E8         :   0.000000000 

-------------------------   ----------------
Dispersion correction           -0.000203357
-------------------------   ----------------


-------------------------   --------------------
FINAL SINGLE POINT ENERGY     -2177.890001447811
-------------------------   --------------------


                            ***************************************
                            *     ORCA property calculations      *
                            ***************************************

                                    ---------------------
                                    Active property flags
                                    ---------------------
   (+) Dipole Moment


------------------------------------------------------------------------------
                       ORCA ELECTRIC PROPERTIES CALCULATION
------------------------------------------------------------------------------

Dipole Moment Calculation                       ... on
Quadrupole Moment Calculation                   ... off
Polarizability Calculation                      ... off
GBWName                                         ... 60_ZnS.gbw
Electron density file                           ... 60_ZnS.scfp
The origin for moment calculation is the CENTER OF MASS  = ( 0.000000,  0.000000  1.225711)

-------------
DIPOLE MOMENT
-------------
                                X             Y             Z
Electronic contribution:     -0.00000      -0.00000      -5.39517
Nuclear contribution   :      0.00000       0.00000       3.35914
                        -----------------------------------------
Total Dipole Moment    :     -0.00000      -0.00000      -2.03603
                        -----------------------------------------
Magnitude (a.u.)       :      2.03603
Magnitude (Debye)      :      5.17518



--------------------
Rotational spectrum 
--------------------
 
Rotational constants in cm-1:     0.000000     0.185542     0.185542 
Rotational constants in MHz :     0.000000  5562.415993  5562.415993 

 Dipole components along the rotational axes: 
x,y,z [a.u.] :    -2.036032    -0.000000    -0.000000 
x,y,z [Debye]:    -5.175183    -0.000000    -0.000000 

 

Timings for individual modules:

Sum of individual times         ...        6.349 sec (=   0.106 min)
GTO integral calculation        ...        3.046 sec (=   0.051 min)  48.0 %
SCF iterations                  ...        3.304 sec (=   0.055 min)  52.0 %
                             ****ORCA TERMINATED NORMALLY****
TOTAL RUN TIME: 0 days 0 hours 0 minutes 6 seconds 954 msec
