
                                 *****************
                                 * O   R   C   A *
                                 *****************

           --- An Ab Initio, DFT and Semiempirical electronic structure package ---

                  #######################################################
                  #                        -***-                        #
                  #          Department of theory and spectroscopy      #
                  #               Directorship: Frank Neese             #
                  #        Max Planck Institute fuer Kohlenforschung    #
                  #                Kaiser Wilhelm Platz 1               #
                  #                 D-45470 Muelheim/Ruhr               #
                  #                      Germany                        #
                  #                                                     #
                  #                  All rights reserved                #
                  #                        -***-                        #
                  #######################################################


                         Program Version 4.2.0 -  RELEASE  -


 With contributions from (in alphabetic order):
   Daniel Aravena         : Magnetic Suceptibility
   Michael Atanasov       : Ab Initio Ligand Field Theory (pilot matlab implementation)
   Alexander A. Auer      : GIAO ZORA, VPT2
   Ute Becker             : Parallelization
   Giovanni Bistoni       : ED, misc. LED, open-shell LED, HFLED
   Martin Brehm           : Molecular dynamics
   Dmytro Bykov           : SCF Hessian
   Vijay G. Chilkuri      : MRCI spin determinant printing, contributions to CSF-ICE
   Dipayan Datta          : RHF DLPNO-CCSD density
   Achintya Kumar Dutta   : EOM-CC, STEOM-CC
   Dmitry Ganyushin       : Spin-Orbit,Spin-Spin,Magnetic field MRCI
   Miquel Garcia          : C-PCM Hessian, Gaussian charge scheme
   Yang Guo               : DLPNO-NEVPT2, CIM, IAO-localization
   Andreas Hansen         : Spin unrestricted coupled pair/coupled cluster methods
   Benjamin Helmich-Paris : CASSCF linear response (MC-RPA)
   Lee Huntington         : MR-EOM, pCC
   Robert Izsak           : Overlap fitted RIJCOSX, COSX-SCS-MP3, EOM
   Christian Kollmar      : KDIIS, OOCD, Brueckner-CCSD(T), CCSD density
   Simone Kossmann        : Meta GGA functionals, TD-DFT gradient, OOMP2, MP2 Hessian
   Martin Krupicka        : AUTO-CI
   Lucas Lang             : DCDCAS
   Dagmar Lenk            : GEPOL surface, SMD
   Dimitrios Liakos       : Extrapolation schemes; Compound Job, initial MDCI parallelization
   Dimitrios Manganas     : Further ROCIS development; embedding schemes
   Dimitrios Pantazis     : SARC Basis sets
   Taras Petrenko         : DFT Hessian,TD-DFT gradient, ASA, ECA, R-Raman, ABS, FL, XAS/XES, NRVS
   Peter Pinski           : DLPNO-MP2, DLPNO-MP2 Gradient
   Christoph Reimann      : Effective Core Potentials
   Marius Retegan         : Local ZFS, SOC
   Christoph Riplinger    : Optimizer, TS searches, QM/MM, DLPNO-CCSD(T), (RO)-DLPNO pert. Triples
   Tobias Risthaus        : Range-separated hybrids, TD-DFT gradient, RPA, STAB
   Michael Roemelt        : Original ROCIS implementation
   Masaaki Saitow         : Open-shell DLPNO-CCSD energy and density
   Barbara Sandhoefer     : DKH picture change effects
   Avijit Sen             : IP-ROCIS
   Kantharuban Sivalingam : CASSCF convergence, NEVPT2, FIC-MRCI
   Bernardo de Souza      : ESD, SOC TD-DFT
   Georgi Stoychev        : AutoAux, RI-MP2 NMR
   Willem Van den Heuvel  : Paramagnetic NMR
   Boris Wezisla          : Elementary symmetry handling
   Frank Wennmohs         : Technical directorship


 We gratefully acknowledge several colleagues who have allowed us to
 interface, adapt or use parts of their codes:
   Stefan Grimme, W. Hujo, H. Kruse,             : VdW corrections, initial TS optimization,
                  C. Bannwarth                     DFT functionals, gCP, sTDA/sTD-DF
   Ed Valeev, F. Pavosevic, A. Kumar             : LibInt (2-el integral package), F12 methods
   Garnet Chan, S. Sharma, J. Yang, R. Olivares  : DMRG
   Ulf Ekstrom                                   : XCFun DFT Library
   Mihaly Kallay                                 : mrcc  (arbitrary order and MRCC methods)
   Andreas Klamt, Michael Diedenhofen            : otool_cosmo (COSMO solvation model)
   Jiri Pittner, Ondrej Demel                    : Mk-CCSD
   Frank Weinhold                                : gennbo (NPA and NBO analysis)
   Christopher J. Cramer and Donald G. Truhlar   : smd solvation model
   Lars Goerigk                                  : TD-DFT with DH, B97 family of functionals
   V. Asgeirsson, H. Jonsson                     : NEB implementation
   FAccTs GmbH                                   : IRC, NEB, NEB-TS, Multilevel, MM, QM/MM, CI optimization
   S Lehtola, MJT Oliveira, MAL Marques          : LibXC Library


 Your calculation uses the libint2 library for the computation of 2-el integrals
 For citations please refer to: http://libint.valeyev.net

 Your ORCA version has been built with support for libXC version: 4.2.3
 For citations please refer to: https://tddft.org/programs/libxc/

 This ORCA versions uses:
   CBLAS   interface :  Fast vector & matrix operations
   LAPACKE interface :  Fast linear algebra routines
   SCALAPACK package :  Parallel linear algebra routines


Your calculation utilizes the atom-pairwise dispersion correction
with the Becke-Johnson damping scheme (D3BJ)
Cite in your paper:
S.Grimme, S.Ehrlich, L.Goerigk, J Comput Chem, (2011), 32, 1456–1465 
S.Grimme, J.Antony, S.Ehrlich and H.Krieg, J.Chem.Phys., 132, (2010), 154104 
   

----- Orbital basis set information -----
Your calculation utilizes the basis: aug-cc-pVTZ 
    H, B-Ne : Obtained from the ccRepo (grant-hill.group.shef.ac.uk/ccrepo) Feb. 2017
              R. A. Kendall, T. H. Dunning, Jr., R. J. Harrison, J. Chem. Phys. 96, 6796 (1992)
         He : Obtained from the ccRepo (grant-hill.group.shef.ac.uk/ccrepo) Feb. 2017
              D. E. Woon, T. H. Dunning, Jr., J. Chem. Phys. 100, 2975 (1994)
  Li-Be, Na : Obtained from the ccRepo (grant-hill.group.shef.ac.uk/ccrepo) Feb. 2017
              B. P. Prascher, D. E. Woon, K. A. Peterson, T. H. Dunning, Jr., A. K. Wilson, Theor. Chem. Acc. 128, 69 (2011)
         Mg : Obtained from the Peterson Research Group Website (tyr0.chem.wsu.edu/~kipeters) Feb. 2017
              B. P. Prascher, D. E. Woon, K. A. Peterson, T. H. Dunning, Jr., A. K. Wilson, Theor. Chem. Acc. 128, 69 (2011)
      Al-Ar : Obtained from the ccRepo (grant-hill.group.shef.ac.uk/ccrepo) Feb. 2017
              D. E. Woon, T. H. Dunning, Jr., J. Chem. Phys. 98, 1358 (1993)
      Sc-Zn : Obtained from the ccRepo (grant-hill.group.shef.ac.uk/ccrepo) Feb. 2017
              N. B. Balabanov, K. A. Peterson, J. Chem. Phys. 123, 064107 (2005)
              N. B. Balabanov, K. A. Peterson, J. Chem. Phys. 125, 074110 (2006)
      Ga-Kr : Obtained from the ccRepo (grant-hill.group.shef.ac.uk/ccrepo) Feb. 2017
              A. K. Wilson, D. E. Woon, K. A. Peterson, T. H. Dunning, Jr., J. Chem. Phys. 110, 7667 (1999)
     Ag, Au : Obtained from the Peterson Research Group Website (tyr0.chem.wsu.edu/~kipeters) Feb. 2017
              K. A. Peterson, C. Puzzarini, Theor. Chem. Acc. 114, 283 (2005)

----- AuxJ basis set information -----
Your calculation utilizes the auxiliary basis: def2/J
   F. Weigend, Phys. Chem. Chem. Phys. 8, 1057 (2006).

================================================================================
                                        WARNINGS
                       Please study these warnings very carefully!
================================================================================


WARNING: your system is open-shell and RHF/RKS was chosen
  ===> : WILL SWITCH to UHF/UKS


WARNING: The SCAN functional is very grid-sensitive!
         Use at least GRID5 and a higher intacc

INFO   : the flag for use of LIBINT has been found!

================================================================================
                                       INPUT FILE
================================================================================
NAME = 62_Ti.in
|  1> #
|  2> # 62_Ti scanfunc/aug-cc-pvtz
|  3> #
|  4> ! scanfunc d3bj aug-cc-pvtz def2/j grid4 nofinalgrid
|  5> 
|  6> *xyz 0 3
|  7> Ti 0.0 0.0 0.0
|  8> *
|  9> 
| 10> %pal
| 11> nprocs 24
| 12> end
| 13> 
| 14> 
| 15>                          ****END OF INPUT****
================================================================================

                       ****************************
                       * Single Point Calculation *
                       ****************************

---------------------------------
CARTESIAN COORDINATES (ANGSTROEM)
---------------------------------
  Ti     0.000000    0.000000    0.000000

----------------------------
CARTESIAN COORDINATES (A.U.)
----------------------------
  NO LB      ZA    FRAG     MASS         X           Y           Z
   0 Ti   22.0000    0    47.900    0.000000    0.000000    0.000000

--------------------------------
INTERNAL COORDINATES (ANGSTROEM)
--------------------------------
 Ti     0   0   0     0.000000000000     0.00000000     0.00000000

---------------------------
INTERNAL COORDINATES (A.U.)
---------------------------
 Ti     0   0   0     0.000000000000     0.00000000     0.00000000

---------------------
BASIS SET INFORMATION
---------------------
There are 1 groups of distinct atoms

 Group   1 Type Ti  : 116s77p23d3f2g contracted to 8s7p5d3f2g pattern {19191919191911/151515151511/77711/111/11}

Atom   0Ti   basis set group =>   1
---------------------------------
AUXILIARY/J BASIS SET INFORMATION
---------------------------------
There are 1 groups of distinct atoms

 Group   1 Type Ti  : 19s5p5d3f3g contracted to 8s5p5d2f3g pattern {121111111/11111/11111/21/111}

Atom   0Ti   basis set group =>   1


           ************************************************************
           *        Program running with 24 parallel MPI-processes    *
           *              working on a common directory               *
           ************************************************************
------------------------------------------------------------------------------
                           ORCA GTO INTEGRAL CALCULATION
                           -- RI-GTO INTEGRALS CHOSEN --
------------------------------------------------------------------------------

                         BASIS SET STATISTICS AND STARTUP INFO

Gaussian basis set:
 # of primitive gaussian shells          ...  221
 # of primitive gaussian functions       ...  501
 # of contracted shells                  ...   25
 # of contracted basis functions         ...   93
 Highest angular momentum                ...    4
 Maximum contraction depth               ...   19
Auxiliary gaussian basis set:
 # of primitive gaussian shells          ...   35
 # of primitive gaussian functions       ...  107
 # of contracted shells                  ...   23
 # of contracted aux-basis functions     ...   89
 Highest angular momentum                ...    4
 Maximum contraction depth               ...   12
Ratio of auxiliary to basis functions    ...  0.96
Integral package used                  ... LIBINT
 One Electron integrals                  ... done
 Ordering auxiliary basis shells         ... done
 Integral threshhold             Thresh  ...  1.000e-10
 Primitive cut-off               TCut    ...  1.000e-11
 Pre-screening matrix                    ... done
 Shell pair data                         ... 
 Ordering of the shell pairs             ... done (   0.000 sec) 325 of 325 pairs
 Determination of significant pairs      ... done (   0.000 sec)
 Creation of shell pair data             ... done (   0.001 sec)
 Storage of shell pair data              ... done (   0.013 sec)
 Shell pair data done in (   0.014 sec)
 Computing two index integrals           ... done
 Cholesky decomposition of the V-matrix  ... done


Timings:
 Total evaluation time                   ...   2.113 sec (  0.035 min)
 One electron matrix time                ...   0.030 sec (  0.000 min) =  1.4%
 Schwartz matrix evaluation time         ...   2.039 sec (  0.034 min) = 96.5%
 Two index repulsion integral time       ...   0.000 sec (  0.000 min) =  0.0%
 Cholesky decomposition of V             ...   0.001 sec (  0.000 min) =  0.0%
 Three index repulsion integral time     ...   0.000 sec (  0.000 min) =  0.0%



           ************************************************************
           *        Program running with 24 parallel MPI-processes    *
           *              working on a common directory               *
           ************************************************************
-------------------------------------------------------------------------------
                                 ORCA SCF
-------------------------------------------------------------------------------

------------
SCF SETTINGS
------------
Hamiltonian:
 Density Functional     Method          .... DFT(GTOs)
 Exchange Functional    Exchange        .... SCAN
 Correlation Functional Correlation     .... SCAN
 Gradients option       PostSCFGGA      .... off
   Density functional embedding theory  .... OFF
   NL short-range parameter             ....  6.400000
 RI-approximation to the Coulomb term is turned on
   Number of auxiliary basis functions  .... 89


General Settings:
 Integral files         IntName         .... 62_Ti
 Hartree-Fock type      HFTyp           .... UHF
 Total Charge           Charge          ....    0
 Multiplicity           Mult            ....    3
 Number of Electrons    NEL             ....   22
 Basis Dimension        Dim             ....   93
 Nuclear Repulsion      ENuc            ....      0.0000000000 Eh

Convergence Acceleration:
 DIIS                   CNVDIIS         .... on
   Start iteration      DIISMaxIt       ....    12
   Startup error        DIISStart       ....  0.200000
   # of expansion vecs  DIISMaxEq       ....     5
   Bias factor          DIISBfac        ....   1.050
   Max. coefficient     DIISMaxC        ....  10.000
 Newton-Raphson         CNVNR           .... off
 SOSCF                  CNVSOSCF        .... off
 Level Shifting         CNVShift        .... on
   Level shift para.    LevelShift      ....    0.2500
   Turn off err/grad.   ShiftErr        ....    0.0010
 Zerner damping         CNVZerner       .... off
 Static damping         CNVDamp         .... on
   Fraction old density DampFac         ....    0.7000
   Max. Damping (<1)    DampMax         ....    0.9800
   Min. Damping (>=0)   DampMin         ....    0.0000
   Turn off err/grad.   DampErr         ....    0.1000
 Fernandez-Rico         CNVRico         .... off

SCF Procedure:
 Maximum # iterations   MaxIter         ....   125
 SCF integral mode      SCFMode         .... Direct
   Integral package                     .... LIBINT
 Reset frequency        DirectResetFreq ....    20
 Integral Threshold     Thresh          ....  1.000e-10 Eh
 Primitive CutOff       TCut            ....  1.000e-11 Eh

Convergence Tolerance:
 Convergence Check Mode ConvCheckMode   .... Total+1el-Energy
 Convergence forced     ConvForced      .... 0
 Energy Change          TolE            ....  1.000e-06 Eh
 1-El. energy change                    ....  1.000e-03 Eh
 DIIS Error             TolErr          ....  1.000e-06


Diagonalization of the overlap matrix:
Smallest eigenvalue                        ... 1.249e-04
Time for diagonalization                   ...    0.003 sec
Threshold for overlap eigenvalues          ... 1.000e-08
Number of eigenvalues below threshold      ... 0
Time for construction of square roots      ...    0.002 sec
Total time needed                          ...    0.005 sec

-------------------
DFT GRID GENERATION
-------------------

General Integration Accuracy     IntAcc      ...  4.670
Radial Grid Type                 RadialGrid  ... Gauss-Chebyshev
Angular Grid (max. acc.)         AngularGrid ... Lebedev-302
Angular grid pruning method      GridPruning ... 3 (G Style)
Weight generation scheme         WeightScheme... Becke
Basis function cutoff            BFCut       ...    1.0000e-10
Integration weight cutoff        WCut        ...    1.0000e-14
Grids for H and He will be reduced by one unit

# of grid points (after initial pruning)     ...   9664 (   0.0 sec)
# of grid points (after weights+screening)   ...   9664 (   0.0 sec)
Grid point division into batches done        ...    0.1 sec
Reduced shell lists constructed in    0.1 sec

Total number of grid points                  ...     9664
Total number of batches                      ...      152
Average number of points per batch           ...       63
Average number of grid points per atom       ...     9664
Average number of shells per batch           ...    13.38 (53.50%)
Average number of basis functions per batch  ...    36.62 (39.38%)
Average number of large shells per batch     ...     6.38 (47.66%)
Average number of large basis fcns per batch ...    19.88 (54.27%)
Maximum spatial batch extension              ...  27.95, 22.27, 22.27 au
Average spatial batch extension              ...   0.96,  0.88,  0.86 au

Time for grid setup =    0.127 sec

------------------------------
INITIAL GUESS: MODEL POTENTIAL
------------------------------
Loading Hartree-Fock densities                     ... done
Calculating cut-offs                               ... done
Setting up the integral package                    ... done
Initializing the effective Hamiltonian             ... done
Starting the Coulomb interaction                   ... done (   0.0 sec)
Reading the grid                                   ... done
Mapping shells                                     ... done
Starting the XC term evaluation                    ... done (   0.0 sec)
  promolecular density results
     # of electrons  =     22.000011254
     EX              =    -46.020357409
     EC              =     -0.378223424
     EX+EC           =    -46.398580834
Transforming the Hamiltonian                       ... done (   0.0 sec)
Diagonalizing the Hamiltonian                      ... done (   0.0 sec)
Back transforming the eigenvectors                 ... done (   0.0 sec)
Now organizing SCF variables                       ... done
                      ------------------
                      INITIAL GUESS DONE (   0.2 sec)
                      ------------------
--------------
SCF ITERATIONS
--------------
ITER       Energy         Delta-E        Max-DP      RMS-DP      [F,P]     Damp
               ***  Starting incremental Fock matrix formation  ***
  0   -848.7152686892   0.000000000000 1.10759285  0.02404518  0.5758008 0.7000
  1   -849.0786149258  -0.363346236548 0.31208268  0.01133037  0.1576382 0.7000
                               ***Turning on DIIS***
  2   -848.9701257756   0.108489150228 0.34059808  0.00914352  0.1471387 0.7000
  3   -849.0967814605  -0.126655684903 0.95506217  0.02516438  0.0801374 0.0000
  4   -849.3640213775  -0.267239917054 0.17624110  0.00286631  0.0402198 0.0000
  5   -849.3769053927  -0.012884015203 0.14774370  0.00255788  0.0203710 0.0000
  6   -849.3824824711  -0.005577078396 0.05697868  0.00096829  0.0128986 0.0000
  7   -849.3852240947  -0.002741623583 0.04646912  0.00074959  0.0107326 0.0000
  8   -849.3870445629  -0.001820468152 0.02966642  0.00054624  0.0088908 0.0000
  9   -849.3882555175  -0.001210954687 0.03295937  0.00053047  0.0071526 0.0000
 10   -849.3891584198  -0.000902902259 0.02314817  0.00038999  0.0057787 0.0000
 11   -849.3898246529  -0.000666233084 0.02901596  0.00043609  0.0045230 0.0000
 12   -849.3903844613  -0.000559808384 0.01161918  0.00024273  0.0035825 0.0000
 13   -849.3908091331  -0.000424671827 0.01231094  0.00030025  0.0027016 0.0000
 14   -849.3911701796  -0.000361046505 0.01019454  0.00019816  0.0020642 0.0000
 15   -849.3914609262  -0.000290746588 0.00906641  0.00018194  0.0014720 0.0000
 16   -849.3916958337  -0.000234907549 0.04373677  0.00084154  0.0009847 0.0000
 17   -849.3922673149  -0.000571481171 0.00138440  0.00003344  0.0096769 0.0000
 18   -849.3922386061   0.000028708771 0.00066957  0.00001714  0.0101951 0.0000
 19   -849.3922511866  -0.000012580431 0.00053655  0.00001756  0.0099634 0.0000
               *** Restarting incremental Fock matrix formation ***
                                   *** Resetting DIIS ***
 20   -849.3922388684   0.000012318151 0.04258505  0.00111168  0.0101905 0.0000
 21   -849.3924910839  -0.000252215444 0.02561409  0.00080328  0.0096591 0.0000
 22   -849.3926473288  -0.000156244914 0.00828122  0.00011947  0.0019643 0.0000
 23   -849.3927099560  -0.000062627269 0.00550474  0.00009421  0.0014756 0.0000
 24   -849.3927661169  -0.000056160879 0.00382441  0.00008227  0.0014416 0.0000
 25   -849.3928183053  -0.000052188415 0.00333899  0.00006828  0.0013941 0.0000
 26   -849.3928618679  -0.000043562523 0.00228355  0.00004600  0.0013363 0.0000
 27   -849.3928898694  -0.000028001536 0.00150436  0.00004519  0.0012829 0.0000
 28   -849.3928925297  -0.000002660251 0.00192996  0.00004662  0.0020150 0.0000
 29   -849.3929166690  -0.000024139333 0.00156749  0.00002993  0.0019117 0.0000
 30   -849.3929311872  -0.000014518228 0.00165755  0.00003307  0.0021909 0.0000
 31   -849.3929488916  -0.000017704346 0.00141486  0.00002859  0.0022261 0.0000
 32   -849.3929632005  -0.000014308913 0.00385602  0.00011254  0.0022582 0.0000
 33   -849.3929759671  -0.000012766608 0.00293408  0.00008834  0.0012048 0.0000
 34   -849.3930152055  -0.000039238383 0.00376967  0.00006668  0.0012057 0.0000
 35   -849.3930462694  -0.000031063914 0.00434444  0.00007588  0.0011500 0.0000
 36   -849.3930797061  -0.000033436689 0.00324861  0.00005847  0.0010997 0.0000
 37   -849.3931070421  -0.000027336012 0.00412882  0.00008734  0.0010284 0.0000
 38   -849.3931379493  -0.000030907262 0.01412491  0.00023805  0.0009754 0.0000
 39   -849.3932162702  -0.000078320816 0.00113867  0.00002836  0.0024277 0.0000
               *** Restarting incremental Fock matrix formation ***
                                   *** Resetting DIIS ***
 40   -849.3932234611  -0.000007190964 0.01027565  0.00026512  0.0020447 0.0000
 41   -849.3932415337  -0.000018072617 0.00546172  0.00015637  0.0018984 0.0000
 42   -849.3932556215  -0.000014087760 0.01219429  0.00017866  0.0006827 0.0000
 43   -849.3932936172  -0.000037995719 0.00363236  0.00008003  0.0018684 0.0000
 44   -849.3933048330  -0.000011215761 0.00338820  0.00007878  0.0010411 0.0000
 45   -849.3933151496  -0.000010316633 0.00781439  0.00014345  0.0005062 0.0000
 46   -849.3933407697  -0.000025620058 0.01268151  0.00025098  0.0006932 0.0000
 47   -849.3933599647  -0.000019195005 0.00356464  0.00010642  0.0005801 0.0000
 48   -849.3933628360  -0.000002871284 0.00114743  0.00001993  0.0001024 0.0000
 49   -849.3933635935  -0.000000757498 0.00112044  0.00001520  0.0001028 0.0000
                 **** Energy Check signals convergence ****

               *****************************************************
               *                     SUCCESS                       *
               *           SCF CONVERGED AFTER  50 CYCLES          *
               *****************************************************


----------------
TOTAL SCF ENERGY
----------------

Total Energy       :         -849.39336428 Eh          -23113.16849 eV

Components:
Nuclear Repulsion  :            0.00000000 Eh               0.00000 eV
Electronic Energy  :         -849.39336428 Eh          -23113.16849 eV
One Electron Energy:        -1163.84009085 Eh          -31669.69893 eV
Two Electron Energy:          314.44672657 Eh            8556.53044 eV

Virial components:
Potential Energy   :        -1697.51434117 Eh          -46191.71356 eV
Kinetic Energy     :          848.12097688 Eh           23078.54507 eV
Virial Ratio       :            2.00150024


DFT components:
N(Alpha)           :       11.999996721696 electrons
N(Beta)            :        9.999995118805 electrons
N(Total)           :       21.999991840501 electrons
E(X)               :      -41.196821512870 Eh       
E(C)               :       -0.883793395150 Eh       
E(XC)              :      -42.080614908019 Eh       
DFET-embed. en.    :        0.000000000000 Eh       

---------------
SCF CONVERGENCE
---------------

  Last Energy change         ...   -6.8933e-07  Tolerance :   1.0000e-06
  Last MAX-Density change    ...    9.7645e-04  Tolerance :   1.0000e-05
  Last RMS-Density change    ...    1.3655e-05  Tolerance :   1.0000e-06
  Last DIIS Error            ...    1.0238e-04  Tolerance :   1.0000e-06

             **** THE GBW FILE WAS UPDATED (62_Ti.gbw) ****
             **** DENSITY FILE WAS UPDATED (62_Ti.scfp) ****
             **** ENERGY FILE WAS UPDATED (62_Ti.en.tmp) ****
----------------------
UHF SPIN CONTAMINATION
----------------------

Warning: in a DFT calculation there is little theoretical justification to 
         calculate <S**2> as in Hartree-Fock theory. We will do it anyways
         but you should keep in mind that the values have only limited relevance

Expectation value of <S**2>     :     2.535612
Ideal value S*(S+1) for S=1.0   :     2.000000
Deviation                       :     0.535612

             **** THE GBW FILE WAS UPDATED (62_Ti.gbw) ****
             **** DENSITY FILE WAS UPDATED (62_Ti.scfp) ****
----------------
ORBITAL ENERGIES
----------------
                 SPIN UP ORBITALS
  NO   OCC          E(Eh)            E(eV) 
   0   1.0000    -178.538668     -4858.2842 
   1   1.0000     -19.750343      -537.4341 
   2   1.0000     -16.463252      -447.9879 
   3   1.0000     -16.462926      -447.9790 
   4   1.0000     -16.459015      -447.8726 
   5   1.0000      -2.314005       -62.9673 
   6   1.0000      -1.446804       -39.3695 
   7   1.0000      -1.434205       -39.0267 
   8   1.0000      -1.433610       -39.0105 
   9   1.0000      -0.180950        -4.9239 
  10   1.0000      -0.180515        -4.9121 
  11   1.0000      -0.166454        -4.5295 
  12   0.0000      -0.120894        -3.2897 
  13   0.0000      -0.097912        -2.6643 
  14   0.0000      -0.097147        -2.6435 
  15   0.0000      -0.048442        -1.3182 
  16   0.0000      -0.047899        -1.3034 
  17   0.0000      -0.026761        -0.7282 
  18   0.0000       0.012845         0.3495 
  19   0.0000       0.025893         0.7046 
  20   0.0000       0.033735         0.9180 
  21   0.0000       0.034049         0.9265 
  22   0.0000       0.037892         1.0311 
  23   0.0000       0.047170         1.2835 
  24   0.0000       0.048198         1.3115 
  25   0.0000       0.056809         1.5459 
  26   0.0000       0.057312         1.5595 
  27   0.0000       0.099730         2.7138 
  28   0.0000       0.135896         3.6979 
  29   0.0000       0.137186         3.7330 
  30   0.0000       0.138051         3.7565 
  31   0.0000       0.142336         3.8732 
  32   0.0000       0.142714         3.8835 
  33   0.0000       0.142833         3.8867 
  34   0.0000       0.147221         4.0061 
  35   0.0000       0.147773         4.0211 
  36   0.0000       0.249011         6.7759 
  37   0.0000       0.254778         6.9329 
  38   0.0000       0.255553         6.9540 
  39   0.0000       0.256835         6.9888 
  40   0.0000       0.258664         7.0386 
  41   0.0000       0.260117         7.0782 
  42   0.0000       0.262379         7.1397 
  43   0.0000       0.388764        10.5788 
  44   0.0000       0.513410        13.9706 
  45   0.0000       0.514083        13.9889 
  46   0.0000       0.519512        14.1366 
  47   0.0000       0.520266        14.1572 
  48   0.0000       0.528244        14.3742 
  49   0.0000       0.529139        14.3986 
  50   0.0000       0.534984        14.5577 
  51   0.0000       0.537874        14.6363 
  52   0.0000       0.903397        24.5827 
  53   0.0000       0.905472        24.6391 
  54   0.0000       0.914281        24.8788 
  55   0.0000       0.916314        24.9342 
  56   0.0000       0.917175        24.9576 
  57   0.0000       0.918307        24.9884 
  58   0.0000       0.919142        25.0111 
  59   0.0000       0.920121        25.0378 
  60   0.0000       0.921980        25.0883 
  61   0.0000       0.923695        25.1350 
  62   0.0000       0.924422        25.1548 
  63   0.0000       0.925444        25.1826 
  64   0.0000       0.928436        25.2640 
  65   0.0000       0.931225        25.3399 
  66   0.0000       0.934047        25.4167 
  67   0.0000       0.937605        25.5135 
  68   0.0000       1.854232        50.4562 
  69   0.0000       1.865453        50.7616 
  70   0.0000       1.866094        50.7790 
  71   0.0000       1.946667        52.9715 
  72   0.0000       2.056304        55.9549 
  73   0.0000       2.056805        55.9685 
  74   0.0000       2.099130        57.1202 
  75   0.0000       2.112936        57.4959 
  76   0.0000       2.113703        57.5168 
  77   0.0000       3.262399        88.7744 
  78   0.0000       3.263503        88.8044 
  79   0.0000       3.265614        88.8619 
  80   0.0000       3.266223        88.8785 
  81   0.0000       3.268101        88.9295 
  82   0.0000       3.268534        88.9413 
  83   0.0000       3.269575        88.9697 
  84   0.0000       3.274435        89.1019 
  85   0.0000       3.277133        89.1753 
  86   0.0000       3.396989        92.4368 
  87   0.0000       3.399772        92.5125 
  88   0.0000       3.402557        92.5883 
  89   0.0000       3.405263        92.6619 
  90   0.0000       3.413834        92.8952 
  91   0.0000       3.414123        92.9030 
  92   0.0000       3.454572        94.0037 

                 SPIN DOWN ORBITALS
  NO   OCC          E(Eh)            E(eV) 
   0   1.0000    -178.538846     -4858.2890 
   1   1.0000     -19.730150      -536.8847 
   2   1.0000     -16.446363      -447.5283 
   3   1.0000     -16.442002      -447.4096 
   4   1.0000     -16.441640      -447.3998 
   5   1.0000      -2.260501       -61.5114 
   6   1.0000      -1.385158       -37.6921 
   7   1.0000      -1.368478       -37.2382 
   8   1.0000      -1.367831       -37.2206 
   9   1.0000      -0.146696        -3.9918 
  10   0.0000      -0.078491        -2.1358 
  11   0.0000      -0.078144        -2.1264 
  12   0.0000      -0.078006        -2.1227 
  13   0.0000      -0.056123        -1.5272 
  14   0.0000      -0.042577        -1.1586 
  15   0.0000      -0.042335        -1.1520 
  16   0.0000      -0.034154        -0.9294 
  17   0.0000      -0.034029        -0.9260 
  18   0.0000       0.048706         1.3254 
  19   0.0000       0.075364         2.0508 
  20   0.0000       0.075764         2.0616 
  21   0.0000       0.075955         2.0668 
  22   0.0000       0.086267         2.3475 
  23   0.0000       0.086314         2.3487 
  24   0.0000       0.090094         2.4516 
  25   0.0000       0.113716         3.0944 
  26   0.0000       0.114048         3.1034 
  27   0.0000       0.205812         5.6004 
  28   0.0000       0.216270         5.8850 
  29   0.0000       0.221068         6.0156 
  30   0.0000       0.223394         6.0788 
  31   0.0000       0.227470         6.1898 
  32   0.0000       0.227841         6.1999 
  33   0.0000       0.228772         6.2252 
  34   0.0000       0.229352         6.2410 
  35   0.0000       0.229985         6.2582 
  36   0.0000       0.233801         6.3621 
  37   0.0000       0.240382         6.5411 
  38   0.0000       0.240487         6.5440 
  39   0.0000       0.246677         6.7124 
  40   0.0000       0.246747         6.7143 
  41   0.0000       0.261157         7.1064 
  42   0.0000       0.264337         7.1930 
  43   0.0000       0.457598        12.4519 
  44   0.0000       0.548887        14.9360 
  45   0.0000       0.552490        15.0340 
  46   0.0000       0.556472        15.1424 
  47   0.0000       0.556869        15.1532 
  48   0.0000       0.581594        15.8260 
  49   0.0000       0.581748        15.8302 
  50   0.0000       0.602407        16.3923 
  51   0.0000       0.602900        16.4058 
  52   0.0000       0.931987        25.3606 
  53   0.0000       0.943611        25.6770 
  54   0.0000       0.943650        25.6780 
  55   0.0000       0.944203        25.6931 
  56   0.0000       0.944885        25.7116 
  57   0.0000       0.960276        26.1304 
  58   0.0000       0.963455        26.2169 
  59   0.0000       0.964621        26.2487 
  60   0.0000       0.965300        26.2671 
  61   0.0000       0.966044        26.2874 
  62   0.0000       0.977981        26.6122 
  63   0.0000       0.978662        26.6307 
  64   0.0000       0.988772        26.9059 
  65   0.0000       0.989331        26.9211 
  66   0.0000       1.003475        27.3059 
  67   0.0000       1.008402        27.4400 
  68   0.0000       1.925896        52.4063 
  69   0.0000       1.947397        52.9914 
  70   0.0000       1.948110        53.0108 
  71   0.0000       2.017931        54.9107 
  72   0.0000       2.171510        59.0898 
  73   0.0000       2.178947        59.2922 
  74   0.0000       2.179578        59.3093 
  75   0.0000       2.197937        59.8089 
  76   0.0000       2.198346        59.8200 
  77   0.0000       3.365215        91.5721 
  78   0.0000       3.365532        91.5808 
  79   0.0000       3.373569        91.7995 
  80   0.0000       3.380302        91.9827 
  81   0.0000       3.381056        92.0032 
  82   0.0000       3.382746        92.0492 
  83   0.0000       3.383139        92.0599 
  84   0.0000       3.383684        92.0747 
  85   0.0000       3.387319        92.1736 
  86   0.0000       3.487980        94.9128 
  87   0.0000       3.511070        95.5411 
  88   0.0000       3.511825        95.5616 
  89   0.0000       3.523665        95.8838 
  90   0.0000       3.529355        96.0386 
  91   0.0000       3.529537        96.0436 
  92   0.0000       3.536430        96.2311 

                    ********************************
                    * MULLIKEN POPULATION ANALYSIS *
                    ********************************

--------------------------------------------
MULLIKEN ATOMIC CHARGES AND SPIN POPULATIONS
--------------------------------------------
   0 Ti:   -0.000000    2.000000
Sum of atomic charges         :   -0.0000000
Sum of atomic spin populations:    2.0000000

-----------------------------------------------------
MULLIKEN REDUCED ORBITAL CHARGES AND SPIN POPULATIONS
-----------------------------------------------------
CHARGE
  0 Tis       :     7.680273  s :     7.680273
      pz      :     3.999812  p :    11.999436
      px      :     3.999811
      py      :     3.999813
      dz2     :     0.595726  d :     2.319219
      dxz     :     0.061201
      dyz     :     0.597531
      dx2y2   :     0.141023
      dxy     :     0.923739
      f0      :     0.000037  f :     0.000564
      f+1     :     0.000114
      f-1     :     0.000114
      f+2     :     0.000081
      f-2     :     0.000033
      f+3     :     0.000051
      f-3     :     0.000134
      g0      :     0.000029  g :     0.000508
      g+1     :     0.000031
      g-1     :     0.000103
      g+2     :     0.000107
      g-2     :     0.000045
      g+3     :     0.000009
      g-3     :     0.000037
      g+4     :     0.000118
      g-4     :     0.000029

SPIN
  0 Tis       :    -0.097172  s :    -0.097172
      pz      :    -0.000056  p :    -0.000240
      px      :    -0.000102
      py      :    -0.000082
      dz2     :     0.523659  d :     2.096831
      dxz     :     0.053799
      dyz     :     0.468080
      dx2y2   :     0.130431
      dxy     :     0.920862
      f0      :     0.000020  f :     0.000240
      f+1     :     0.000049
      f-1     :     0.000002
      f+2     :     0.000041
      f-2     :     0.000019
      f+3     :     0.000035
      f-3     :     0.000074
      g0      :     0.000021  g :     0.000341
      g+1     :     0.000030
      g-1     :     0.000030
      g+2     :     0.000095
      g-2     :     0.000038
      g+3     :     0.000006
      g-3     :     0.000017
      g+4     :     0.000084
      g-4     :     0.000023


                     *******************************
                     * LOEWDIN POPULATION ANALYSIS *
                     *******************************

-------------------------------------------
LOEWDIN ATOMIC CHARGES AND SPIN POPULATIONS
-------------------------------------------
   0 Ti:   -0.000000    2.000000

----------------------------------------------------
LOEWDIN REDUCED ORBITAL CHARGES AND SPIN POPULATIONS
----------------------------------------------------
CHARGE
  0 Tis       :     7.680273  s :     7.680273
      pz      :     3.999812  p :    11.999436
      px      :     3.999811
      py      :     3.999813
      dz2     :     0.595726  d :     2.319219
      dxz     :     0.061201
      dyz     :     0.597531
      dx2y2   :     0.141023
      dxy     :     0.923739
      f0      :     0.000037  f :     0.000564
      f+1     :     0.000114
      f-1     :     0.000114
      f+2     :     0.000081
      f-2     :     0.000033
      f+3     :     0.000051
      f-3     :     0.000134
      g0      :     0.000029  g :     0.000508
      g+1     :     0.000031
      g-1     :     0.000103
      g+2     :     0.000107
      g-2     :     0.000045
      g+3     :     0.000009
      g-3     :     0.000037
      g+4     :     0.000118
      g-4     :     0.000029

SPIN
  0 Tis       :    -0.097172  s :    -0.097172
      pz      :    -0.000056  p :    -0.000240
      px      :    -0.000102
      py      :    -0.000082
      dz2     :     0.523659  d :     2.096831
      dxz     :     0.053799
      dyz     :     0.468080
      dx2y2   :     0.130431
      dxy     :     0.920862
      f0      :     0.000020  f :     0.000240
      f+1     :     0.000049
      f-1     :     0.000002
      f+2     :     0.000041
      f-2     :     0.000019
      f+3     :     0.000035
      f-3     :     0.000074
      g0      :     0.000021  g :     0.000341
      g+1     :     0.000030
      g-1     :     0.000030
      g+2     :     0.000095
      g-2     :     0.000038
      g+3     :     0.000006
      g-3     :     0.000017
      g+4     :     0.000084
      g-4     :     0.000023


                      *****************************
                      * MAYER POPULATION ANALYSIS *
                      *****************************

  NA   - Mulliken gross atomic population
  ZA   - Total nuclear charge
  QA   - Mulliken gross atomic charge
  VA   - Mayer's total valence
  BVA  - Mayer's bonded valence
  FA   - Mayer's free valence

  ATOM       NA         ZA         QA         VA         BVA        FA
  0 Ti    22.0000    22.0000    -0.0000     3.0712     0.0000     3.0712

  Mayer bond orders larger than 0.100000


-------
TIMINGS
-------

Total SCF time: 0 days 0 hours 0 min 7 sec 

Total time                  ....       7.778 sec
Sum of individual times     ....       7.617 sec  ( 97.9%)

Fock matrix formation       ....       7.193 sec  ( 92.5%)
  Split-RI-J                ....       5.249 sec  ( 73.0% of F)
  XC integration            ....       1.675 sec  ( 23.3% of F)
    Basis function eval.    ....       0.157 sec  (  9.4% of XC)
    Density eval.           ....       0.116 sec  (  6.9% of XC)
    XC-Functional eval.     ....       0.035 sec  (  2.1% of XC)
    XC-Potential eval.      ....       0.347 sec  ( 20.7% of XC)
Diagonalization             ....       0.122 sec  (  1.6%)
Density matrix formation    ....       0.023 sec  (  0.3%)
Population analysis         ....       0.004 sec  (  0.1%)
Initial guess               ....       0.090 sec  (  1.2%)
Orbital Transformation      ....       0.000 sec  (  0.0%)
Orbital Orthonormalization  ....       0.000 sec  (  0.0%)
DIIS solution               ....       0.058 sec  (  0.7%)
Grid generation             ....       0.127 sec  (  1.6%)


-------------------------------------------------------------------------------
                          DFT DISPERSION CORRECTION                            
                                                                               
                              DFTD3 V3.1  Rev 1                                
                          USING Becke-Johnson damping                          
-------------------------------------------------------------------------------
The SCAN functional is recognized
Active option DFTDOPT                   ...         4   

molecular C6(AA) [au] = 1361.916215 


            DFT-D V3
 parameters
 s6 scaling factor         :     1.0000 
 a1 scaling factor         :     0.5380 
 s8 scaling factor         :     0.0000 
 a2 scaling factor         :     5.4200 
 ad hoc parameters k1-k3   :    16.0000     1.3333    -4.0000 

 Edisp/kcal,au: -0.000000000000  -0.000000000000 
 E6   /kcal   :  -0.000000000 
 E8   /kcal   :  -0.000000000 
 % E8         :          -nan 

-------------------------   ----------------
Dispersion correction            0.000000000
-------------------------   ----------------


-------------------------   --------------------
FINAL SINGLE POINT ENERGY      -849.393364282780
-------------------------   --------------------


                            ***************************************
                            *     ORCA property calculations      *
                            ***************************************

                                    ---------------------
                                    Active property flags
                                    ---------------------
   (+) Dipole Moment


------------------------------------------------------------------------------
                       ORCA ELECTRIC PROPERTIES CALCULATION
------------------------------------------------------------------------------

Dipole Moment Calculation                       ... on
Quadrupole Moment Calculation                   ... off
Polarizability Calculation                      ... off
GBWName                                         ... 62_Ti.gbw
Electron density file                           ... 62_Ti.scfp
The origin for moment calculation is the CENTER OF MASS  = ( 0.000000,  0.000000  0.000000)

-------------
DIPOLE MOMENT
-------------
                                X             Y             Z
Electronic contribution:     -0.00000       0.00000       0.00000
Nuclear contribution   :      0.00000       0.00000       0.00000
                        -----------------------------------------
Total Dipole Moment    :     -0.00000       0.00000       0.00000
                        -----------------------------------------
Magnitude (a.u.)       :      0.00000
Magnitude (Debye)      :      0.00000



--------------------
Rotational spectrum 
--------------------
 
Rotational constants in cm-1:     0.000000     0.000000     0.000000 
Rotational constants in MHz :     0.000000     0.000000     0.000000 

 Dipole components along the rotational axes: 
x,y,z [a.u.] :    -0.000000     0.000000     0.000000 
x,y,z [Debye]:    -0.000000     0.000000     0.000000 

 

Timings for individual modules:

Sum of individual times         ...       10.605 sec (=   0.177 min)
GTO integral calculation        ...        2.501 sec (=   0.042 min)  23.6 %
SCF iterations                  ...        8.105 sec (=   0.135 min)  76.4 %
                             ****ORCA TERMINATED NORMALLY****
TOTAL RUN TIME: 0 days 0 hours 0 minutes 11 seconds 168 msec
