
                                 *****************
                                 * O   R   C   A *
                                 *****************

           --- An Ab Initio, DFT and Semiempirical electronic structure package ---

                  #######################################################
                  #                        -***-                        #
                  #          Department of theory and spectroscopy      #
                  #               Directorship: Frank Neese             #
                  #        Max Planck Institute fuer Kohlenforschung    #
                  #                Kaiser Wilhelm Platz 1               #
                  #                 D-45470 Muelheim/Ruhr               #
                  #                      Germany                        #
                  #                                                     #
                  #                  All rights reserved                #
                  #                        -***-                        #
                  #######################################################


                         Program Version 4.2.0 -  RELEASE  -


 With contributions from (in alphabetic order):
   Daniel Aravena         : Magnetic Suceptibility
   Michael Atanasov       : Ab Initio Ligand Field Theory (pilot matlab implementation)
   Alexander A. Auer      : GIAO ZORA, VPT2
   Ute Becker             : Parallelization
   Giovanni Bistoni       : ED, misc. LED, open-shell LED, HFLED
   Martin Brehm           : Molecular dynamics
   Dmytro Bykov           : SCF Hessian
   Vijay G. Chilkuri      : MRCI spin determinant printing, contributions to CSF-ICE
   Dipayan Datta          : RHF DLPNO-CCSD density
   Achintya Kumar Dutta   : EOM-CC, STEOM-CC
   Dmitry Ganyushin       : Spin-Orbit,Spin-Spin,Magnetic field MRCI
   Miquel Garcia          : C-PCM Hessian, Gaussian charge scheme
   Yang Guo               : DLPNO-NEVPT2, CIM, IAO-localization
   Andreas Hansen         : Spin unrestricted coupled pair/coupled cluster methods
   Benjamin Helmich-Paris : CASSCF linear response (MC-RPA)
   Lee Huntington         : MR-EOM, pCC
   Robert Izsak           : Overlap fitted RIJCOSX, COSX-SCS-MP3, EOM
   Christian Kollmar      : KDIIS, OOCD, Brueckner-CCSD(T), CCSD density
   Simone Kossmann        : Meta GGA functionals, TD-DFT gradient, OOMP2, MP2 Hessian
   Martin Krupicka        : AUTO-CI
   Lucas Lang             : DCDCAS
   Dagmar Lenk            : GEPOL surface, SMD
   Dimitrios Liakos       : Extrapolation schemes; Compound Job, initial MDCI parallelization
   Dimitrios Manganas     : Further ROCIS development; embedding schemes
   Dimitrios Pantazis     : SARC Basis sets
   Taras Petrenko         : DFT Hessian,TD-DFT gradient, ASA, ECA, R-Raman, ABS, FL, XAS/XES, NRVS
   Peter Pinski           : DLPNO-MP2, DLPNO-MP2 Gradient
   Christoph Reimann      : Effective Core Potentials
   Marius Retegan         : Local ZFS, SOC
   Christoph Riplinger    : Optimizer, TS searches, QM/MM, DLPNO-CCSD(T), (RO)-DLPNO pert. Triples
   Tobias Risthaus        : Range-separated hybrids, TD-DFT gradient, RPA, STAB
   Michael Roemelt        : Original ROCIS implementation
   Masaaki Saitow         : Open-shell DLPNO-CCSD energy and density
   Barbara Sandhoefer     : DKH picture change effects
   Avijit Sen             : IP-ROCIS
   Kantharuban Sivalingam : CASSCF convergence, NEVPT2, FIC-MRCI
   Bernardo de Souza      : ESD, SOC TD-DFT
   Georgi Stoychev        : AutoAux, RI-MP2 NMR
   Willem Van den Heuvel  : Paramagnetic NMR
   Boris Wezisla          : Elementary symmetry handling
   Frank Wennmohs         : Technical directorship


 We gratefully acknowledge several colleagues who have allowed us to
 interface, adapt or use parts of their codes:
   Stefan Grimme, W. Hujo, H. Kruse,             : VdW corrections, initial TS optimization,
                  C. Bannwarth                     DFT functionals, gCP, sTDA/sTD-DF
   Ed Valeev, F. Pavosevic, A. Kumar             : LibInt (2-el integral package), F12 methods
   Garnet Chan, S. Sharma, J. Yang, R. Olivares  : DMRG
   Ulf Ekstrom                                   : XCFun DFT Library
   Mihaly Kallay                                 : mrcc  (arbitrary order and MRCC methods)
   Andreas Klamt, Michael Diedenhofen            : otool_cosmo (COSMO solvation model)
   Jiri Pittner, Ondrej Demel                    : Mk-CCSD
   Frank Weinhold                                : gennbo (NPA and NBO analysis)
   Christopher J. Cramer and Donald G. Truhlar   : smd solvation model
   Lars Goerigk                                  : TD-DFT with DH, B97 family of functionals
   V. Asgeirsson, H. Jonsson                     : NEB implementation
   FAccTs GmbH                                   : IRC, NEB, NEB-TS, Multilevel, MM, QM/MM, CI optimization
   S Lehtola, MJT Oliveira, MAL Marques          : LibXC Library


 Your calculation uses the libint2 library for the computation of 2-el integrals
 For citations please refer to: http://libint.valeyev.net

 Your ORCA version has been built with support for libXC version: 4.2.3
 For citations please refer to: https://tddft.org/programs/libxc/

 This ORCA versions uses:
   CBLAS   interface :  Fast vector & matrix operations
   LAPACKE interface :  Fast linear algebra routines
   SCALAPACK package :  Parallel linear algebra routines


Your calculation utilizes the atom-pairwise dispersion correction
with the Becke-Johnson damping scheme (D3BJ)
Cite in your paper:
S.Grimme, S.Ehrlich, L.Goerigk, J Comput Chem, (2011), 32, 1456–1465 
S.Grimme, J.Antony, S.Ehrlich and H.Krieg, J.Chem.Phys., 132, (2010), 154104 
   

----- Orbital basis set information -----
Your calculation utilizes the basis: aug-cc-pVTZ 
    H, B-Ne : Obtained from the ccRepo (grant-hill.group.shef.ac.uk/ccrepo) Feb. 2017
              R. A. Kendall, T. H. Dunning, Jr., R. J. Harrison, J. Chem. Phys. 96, 6796 (1992)
         He : Obtained from the ccRepo (grant-hill.group.shef.ac.uk/ccrepo) Feb. 2017
              D. E. Woon, T. H. Dunning, Jr., J. Chem. Phys. 100, 2975 (1994)
  Li-Be, Na : Obtained from the ccRepo (grant-hill.group.shef.ac.uk/ccrepo) Feb. 2017
              B. P. Prascher, D. E. Woon, K. A. Peterson, T. H. Dunning, Jr., A. K. Wilson, Theor. Chem. Acc. 128, 69 (2011)
         Mg : Obtained from the Peterson Research Group Website (tyr0.chem.wsu.edu/~kipeters) Feb. 2017
              B. P. Prascher, D. E. Woon, K. A. Peterson, T. H. Dunning, Jr., A. K. Wilson, Theor. Chem. Acc. 128, 69 (2011)
      Al-Ar : Obtained from the ccRepo (grant-hill.group.shef.ac.uk/ccrepo) Feb. 2017
              D. E. Woon, T. H. Dunning, Jr., J. Chem. Phys. 98, 1358 (1993)
      Sc-Zn : Obtained from the ccRepo (grant-hill.group.shef.ac.uk/ccrepo) Feb. 2017
              N. B. Balabanov, K. A. Peterson, J. Chem. Phys. 123, 064107 (2005)
              N. B. Balabanov, K. A. Peterson, J. Chem. Phys. 125, 074110 (2006)
      Ga-Kr : Obtained from the ccRepo (grant-hill.group.shef.ac.uk/ccrepo) Feb. 2017
              A. K. Wilson, D. E. Woon, K. A. Peterson, T. H. Dunning, Jr., J. Chem. Phys. 110, 7667 (1999)
     Ag, Au : Obtained from the Peterson Research Group Website (tyr0.chem.wsu.edu/~kipeters) Feb. 2017
              K. A. Peterson, C. Puzzarini, Theor. Chem. Acc. 114, 283 (2005)

----- AuxJ basis set information -----
Your calculation utilizes the auxiliary basis: def2/J
   F. Weigend, Phys. Chem. Chem. Phys. 8, 1057 (2006).

================================================================================
                                        WARNINGS
                       Please study these warnings very carefully!
================================================================================


WARNING: your system is open-shell and RHF/RKS was chosen
  ===> : WILL SWITCH to UHF/UKS


WARNING: The SCAN functional is very grid-sensitive!
         Use at least GRID5 and a higher intacc

INFO   : the flag for use of LIBINT has been found!

================================================================================
                                       INPUT FILE
================================================================================
NAME = 66_Fe.in
|  1> #
|  2> # 66_Fe scanfunc/aug-cc-pvtz
|  3> #
|  4> ! scanfunc d3bj aug-cc-pvtz def2/j grid4 nofinalgrid
|  5> 
|  6> *xyz 0 5
|  7> Fe 0.0 0.0 0.0
|  8> *
|  9> 
| 10> %pal
| 11> nprocs 24
| 12> end
| 13> 
| 14> 
| 15>                          ****END OF INPUT****
================================================================================

                       ****************************
                       * Single Point Calculation *
                       ****************************

---------------------------------
CARTESIAN COORDINATES (ANGSTROEM)
---------------------------------
  Fe     0.000000    0.000000    0.000000

----------------------------
CARTESIAN COORDINATES (A.U.)
----------------------------
  NO LB      ZA    FRAG     MASS         X           Y           Z
   0 Fe   26.0000    0    55.850    0.000000    0.000000    0.000000

--------------------------------
INTERNAL COORDINATES (ANGSTROEM)
--------------------------------
 Fe     0   0   0     0.000000000000     0.00000000     0.00000000

---------------------------
INTERNAL COORDINATES (A.U.)
---------------------------
 Fe     0   0   0     0.000000000000     0.00000000     0.00000000

---------------------
BASIS SET INFORMATION
---------------------
There are 1 groups of distinct atoms

 Group   1 Type Fe  : 116s77p23d3f2g contracted to 8s7p5d3f2g pattern {19191919191911/151515151511/77711/111/11}

Atom   0Fe   basis set group =>   1
---------------------------------
AUXILIARY/J BASIS SET INFORMATION
---------------------------------
There are 1 groups of distinct atoms

 Group   1 Type Fe  : 19s5p5d3f3g contracted to 8s5p5d2f3g pattern {121111111/11111/11111/21/111}

Atom   0Fe   basis set group =>   1


           ************************************************************
           *        Program running with 24 parallel MPI-processes    *
           *              working on a common directory               *
           ************************************************************
------------------------------------------------------------------------------
                           ORCA GTO INTEGRAL CALCULATION
                           -- RI-GTO INTEGRALS CHOSEN --
------------------------------------------------------------------------------

                         BASIS SET STATISTICS AND STARTUP INFO

Gaussian basis set:
 # of primitive gaussian shells          ...  221
 # of primitive gaussian functions       ...  501
 # of contracted shells                  ...   25
 # of contracted basis functions         ...   93
 Highest angular momentum                ...    4
 Maximum contraction depth               ...   19
Auxiliary gaussian basis set:
 # of primitive gaussian shells          ...   35
 # of primitive gaussian functions       ...  107
 # of contracted shells                  ...   23
 # of contracted aux-basis functions     ...   89
 Highest angular momentum                ...    4
 Maximum contraction depth               ...   12
Ratio of auxiliary to basis functions    ...  0.96
Integral package used                  ... LIBINT
 One Electron integrals                  ... done
 Ordering auxiliary basis shells         ... done
 Integral threshhold             Thresh  ...  1.000e-10
 Primitive cut-off               TCut    ...  1.000e-11
 Pre-screening matrix                    ... done
 Shell pair data                         ... 
 Ordering of the shell pairs             ... done (   0.000 sec) 325 of 325 pairs
 Determination of significant pairs      ... done (   0.000 sec)
 Creation of shell pair data             ... done (   0.001 sec)
 Storage of shell pair data              ... done (   0.011 sec)
 Shell pair data done in (   0.012 sec)
 Computing two index integrals           ... done
 Cholesky decomposition of the V-matrix  ... done


Timings:
 Total evaluation time                   ...   2.115 sec (  0.035 min)
 One electron matrix time                ...   0.033 sec (  0.001 min) =  1.6%
 Schwartz matrix evaluation time         ...   2.041 sec (  0.034 min) = 96.5%
 Two index repulsion integral time       ...   0.000 sec (  0.000 min) =  0.0%
 Cholesky decomposition of V             ...   0.001 sec (  0.000 min) =  0.0%
 Three index repulsion integral time     ...   0.000 sec (  0.000 min) =  0.0%



           ************************************************************
           *        Program running with 24 parallel MPI-processes    *
           *              working on a common directory               *
           ************************************************************
-------------------------------------------------------------------------------
                                 ORCA SCF
-------------------------------------------------------------------------------

------------
SCF SETTINGS
------------
Hamiltonian:
 Density Functional     Method          .... DFT(GTOs)
 Exchange Functional    Exchange        .... SCAN
 Correlation Functional Correlation     .... SCAN
 Gradients option       PostSCFGGA      .... off
   Density functional embedding theory  .... OFF
   NL short-range parameter             ....  6.400000
 RI-approximation to the Coulomb term is turned on
   Number of auxiliary basis functions  .... 89


General Settings:
 Integral files         IntName         .... 66_Fe
 Hartree-Fock type      HFTyp           .... UHF
 Total Charge           Charge          ....    0
 Multiplicity           Mult            ....    5
 Number of Electrons    NEL             ....   26
 Basis Dimension        Dim             ....   93
 Nuclear Repulsion      ENuc            ....      0.0000000000 Eh

Convergence Acceleration:
 DIIS                   CNVDIIS         .... on
   Start iteration      DIISMaxIt       ....    12
   Startup error        DIISStart       ....  0.200000
   # of expansion vecs  DIISMaxEq       ....     5
   Bias factor          DIISBfac        ....   1.050
   Max. coefficient     DIISMaxC        ....  10.000
 Newton-Raphson         CNVNR           .... off
 SOSCF                  CNVSOSCF        .... off
 Level Shifting         CNVShift        .... on
   Level shift para.    LevelShift      ....    0.2500
   Turn off err/grad.   ShiftErr        ....    0.0010
 Zerner damping         CNVZerner       .... off
 Static damping         CNVDamp         .... on
   Fraction old density DampFac         ....    0.7000
   Max. Damping (<1)    DampMax         ....    0.9800
   Min. Damping (>=0)   DampMin         ....    0.0000
   Turn off err/grad.   DampErr         ....    0.1000
 Fernandez-Rico         CNVRico         .... off

SCF Procedure:
 Maximum # iterations   MaxIter         ....   125
 SCF integral mode      SCFMode         .... Direct
   Integral package                     .... LIBINT
 Reset frequency        DirectResetFreq ....    20
 Integral Threshold     Thresh          ....  1.000e-10 Eh
 Primitive CutOff       TCut            ....  1.000e-11 Eh

Convergence Tolerance:
 Convergence Check Mode ConvCheckMode   .... Total+1el-Energy
 Convergence forced     ConvForced      .... 0
 Energy Change          TolE            ....  1.000e-06 Eh
 1-El. energy change                    ....  1.000e-03 Eh
 DIIS Error             TolErr          ....  1.000e-06


Diagonalization of the overlap matrix:
Smallest eigenvalue                        ... 3.245e-04
Time for diagonalization                   ...    0.003 sec
Threshold for overlap eigenvalues          ... 1.000e-08
Number of eigenvalues below threshold      ... 0
Time for construction of square roots      ...    0.001 sec
Total time needed                          ...    0.004 sec

-------------------
DFT GRID GENERATION
-------------------

General Integration Accuracy     IntAcc      ...  4.670
Radial Grid Type                 RadialGrid  ... Gauss-Chebyshev
Angular Grid (max. acc.)         AngularGrid ... Lebedev-302
Angular grid pruning method      GridPruning ... 3 (G Style)
Weight generation scheme         WeightScheme... Becke
Basis function cutoff            BFCut       ...    1.0000e-10
Integration weight cutoff        WCut        ...    1.0000e-14
Grids for H and He will be reduced by one unit

# of grid points (after initial pruning)     ...   9640 (   0.0 sec)
# of grid points (after weights+screening)   ...   9640 (   0.0 sec)
Grid point division into batches done        ...    0.1 sec
Reduced shell lists constructed in    0.1 sec

Total number of grid points                  ...     9640
Total number of batches                      ...      151
Average number of points per batch           ...       63
Average number of grid points per atom       ...     9640
Average number of shells per batch           ...    10.62 (42.50%)
Average number of basis functions per batch  ...    26.38 (28.36%)
Average number of large shells per batch     ...     4.38 (41.18%)
Average number of large basis fcns per batch ...    11.38 (43.13%)
Maximum spatial batch extension              ...  27.95, 22.27, 22.27 au
Average spatial batch extension              ...   0.96,  0.89,  0.86 au

Time for grid setup =    0.128 sec

------------------------------
INITIAL GUESS: MODEL POTENTIAL
------------------------------
Loading Hartree-Fock densities                     ... done
Calculating cut-offs                               ... done
Setting up the integral package                    ... done
Initializing the effective Hamiltonian             ... done
Starting the Coulomb interaction                   ... done (   0.0 sec)
Reading the grid                                   ... done
Mapping shells                                     ... done
Starting the XC term evaluation                    ... done (   0.0 sec)
  promolecular density results
     # of electrons  =     25.999994076
     EX              =    -61.245392579
     EC              =     -0.460843047
     EX+EC           =    -61.706235625
Transforming the Hamiltonian                       ... done (   0.0 sec)
Diagonalizing the Hamiltonian                      ... done (   0.0 sec)
Back transforming the eigenvectors                 ... done (   0.0 sec)
Now organizing SCF variables                       ... done
                      ------------------
                      INITIAL GUESS DONE (   0.2 sec)
                      ------------------
--------------
SCF ITERATIONS
--------------
ITER       Energy         Delta-E        Max-DP      RMS-DP      [F,P]     Damp
               ***  Starting incremental Fock matrix formation  ***
  0  -1263.4141361602   0.000000000000 0.26119287  0.00803932  0.6931415 0.7000
  1  -1263.5040163515  -0.089880191248 0.11919545  0.00290892  0.0590770 0.7000
                               ***Turning on DIIS***
  2  -1263.5531734802  -0.049157128705 0.27168509  0.00687952  0.0724942 0.0000
  3  -1263.7454950669  -0.192321586748 0.04279754  0.00057279  0.1051421 0.7000
  4  -1263.7506966462  -0.005201579294 0.20130454  0.00201006  0.0823735 0.0000
  5  -1263.7650502616  -0.014353615353 0.11557601  0.00113089  0.0141800 0.0000
  6  -1263.7671959726  -0.002145711044 0.06430372  0.00057672  0.0057704 0.0000
  7  -1263.7680310608  -0.000835088191 0.03307387  0.00034640  0.0032415 0.0000
  8  -1263.7685226431  -0.000491582273 0.01263107  0.00022521  0.0031925 0.0000
  9  -1263.7688683292  -0.000345686152 0.01150190  0.00017620  0.0032395 0.0000
 10  -1263.7691481860  -0.000279856719 0.01045535  0.00015501  0.0033115 0.0000
 11  -1263.7693937067  -0.000245520789 0.00931588  0.00013037  0.0031832 0.0000
 12  -1263.7696003314  -0.000206624624 0.00810487  0.00011681  0.0028962 0.0000
 13  -1263.7697510061  -0.000150674763 0.00758732  0.00011093  0.0042700 0.0000
 14  -1263.7698891369  -0.000138130815 0.00689114  0.00010348  0.0060508 0.0000
 15  -1263.7700063770  -0.000117240034 0.00627506  0.00010233  0.0077530 0.0000
 16  -1263.7701229042  -0.000116527244 0.00574348  0.00009644  0.0090484 0.0000
 17  -1263.7702322891  -0.000109384918 0.00474628  0.00007847  0.0102546 0.0000
 18  -1263.7702679475  -0.000035658373 0.00473163  0.00008012  0.0124694 0.0000
 19  -1263.7703643874  -0.000096439887 0.00395598  0.00006905  0.0128080 0.0000
               *** Restarting incremental Fock matrix formation ***
                                   *** Resetting DIIS ***
 20  -1263.7704647373  -0.000100349924 0.01285188  0.00031108  0.0120381 0.0000
 21  -1263.7705878763  -0.000123138955 0.01072415  0.00027009  0.0180638 0.0000
 22  -1263.7710499760  -0.000462099731 0.01245961  0.00016147  0.0034694 0.0000
 23  -1263.7712778127  -0.000227836699 0.01077908  0.00014691  0.0032916 0.0000
 24  -1263.7715020028  -0.000224190112 0.00934124  0.00013173  0.0039791 0.0000
 25  -1263.7716921532  -0.000190150338 0.00766113  0.00011296  0.0061449 0.0000
 26  -1263.7718137723  -0.000121619110 0.00655005  0.00009926  0.0095170 0.0000
 27  -1263.7718708747  -0.000057102427 0.00656212  0.00009400  0.0131816 0.0000
 28  -1263.7719393003  -0.000068425567 0.00688439  0.00009636  0.0154724 0.0000
 29  -1263.7720618813  -0.000122581055 0.00639230  0.00008775  0.0162793 0.0000
 30  -1263.7721327949  -0.000070913610 0.00443322  0.00006949  0.0178786 0.0000
 31  -1263.7721201907   0.000012604208 0.00316326  0.00007415  0.0200996 0.0000
 32  -1263.7723008801  -0.000180689371 0.00861802  0.00018247  0.0162302 0.0000
 33  -1263.7727701997  -0.000469319574 0.01267008  0.00022096  0.0075736 0.0000
 34  -1263.7730261528  -0.000255953156 0.01460882  0.00017464  0.0033555 0.0000
 35  -1263.7732699328  -0.000243779935 0.01302950  0.00016329  0.0035216 0.0000
 36  -1263.7735121715  -0.000242238707 0.01108778  0.00014462  0.0040833 0.0000
 37  -1263.7737217754  -0.000209603978 0.00563775  0.00010088  0.0054861 0.0000
 38  -1263.7737182520   0.000003523425 0.00512612  0.00007889  0.0122675 0.0000
 39  -1263.7736938265   0.000024425521 0.00843293  0.00012480  0.0166108 0.0000
               *** Restarting incremental Fock matrix formation ***
                                   *** Resetting DIIS ***
 40  -1263.7739383983  -0.000244571797 0.00938903  0.00027488  0.0142972 0.0000
 41  -1263.7739177006   0.000020697699 0.01054337  0.00026665  0.0205588 0.0000
 42  -1263.7744281673  -0.000510466754 0.01185103  0.00014840  0.0038014 0.0000
 43  -1263.7746165344  -0.000188367054 0.01069844  0.00014134  0.0037628 0.0000
 44  -1263.7748043613  -0.000187826879 0.01035677  0.00014024  0.0039628 0.0000
 45  -1263.7749936715  -0.000189310253 0.01054005  0.00014307  0.0026682 0.0000
 46  -1263.7751719817  -0.000178310190 0.01125027  0.00014572  0.0029552 0.0000
 47  -1263.7753335095  -0.000161527731 0.00840678  0.00010790  0.0030557 0.0000
 48  -1263.7754119371  -0.000078427661 0.01144533  0.00017565  0.0056284 0.0000
 49  -1263.7755795040  -0.000167566838 0.00986383  0.00011435  0.0037597 0.0000
 50  -1263.7756988834  -0.000119379418 0.01768858  0.00024528  0.0023929 0.0000
 51  -1263.7755661225   0.000132760901 0.00883035  0.00011762  0.0159201 0.0000
 52  -1263.7758416294  -0.000275506940 0.00484023  0.00011545  0.0085045 0.0000
 53  -1263.7759088927  -0.000067263276 0.00522405  0.00007629  0.0066366 0.0000
 54  -1263.7759701653  -0.000061272615 0.00621563  0.00008258  0.0051175 0.0000
 55  -1263.7760374335  -0.000067268243 0.00471627  0.00005821  0.0011251 0.0000
 56  -1263.7760691494  -0.000031715876 0.00550522  0.00006910  0.0011185 0.0000
 57  -1263.7761006183  -0.000031468829 0.00368018  0.00004804  0.0012698 0.0000
 58  -1263.7761208810  -0.000020262763 0.00602408  0.00008383  0.0017550 0.0000
 59  -1263.7761422824  -0.000021401368 0.00322812  0.00004496  0.0028945 0.0000
               *** Restarting incremental Fock matrix formation ***
                                   *** Resetting DIIS ***
 60  -1263.7761694724  -0.000027190021 0.02093576  0.00028543  0.0008445 0.0000
 61  -1263.7760722623   0.000097210145 0.00020415  0.00000650  0.0127482 0.0000
 62  -1263.7760912896  -0.000019027343 0.00015203  0.00000261  0.0118553 0.0000
 63  -1263.7760974460  -0.000006156351 0.00013022  0.00000205  0.0115602 0.0000
 64  -1263.7761005319  -0.000003085956 0.00011608  0.00000173  0.0114072 0.0000
 65  -1263.7761025815  -0.000002049574 0.00571847  0.00018590  0.0113041 0.0000
 66  -1263.7760393032   0.000063278250 0.00564434  0.00014612  0.0157412 0.0000
 67  -1263.7762083719  -0.000169068631 0.00241956  0.00003708  0.0056070 0.0000
 68  -1263.7762408991  -0.000032527275 0.00189134  0.00002525  0.0011109 0.0000
 69  -1263.7762468943  -0.000005995174 0.00974054  0.00013282  0.0004022 0.0000
 70  -1263.7762351994   0.000011694878 0.00003232  0.00000055  0.0054852 0.0000
 71  -1263.7762351055   0.000000093947 0.00004547  0.00000116  0.0054942 0.0000
 72  -1263.7762336094   0.000001496077 0.00004320  0.00000121  0.0056372 0.0000
 73  -1263.7762319467   0.000001662715 0.00002485  0.00000063  0.0057857 0.0000
 74  -1263.7762312920   0.000000654736 0.00313536  0.00010034  0.0058487 0.0000
 75  -1263.7762024388   0.000028853139 0.00302636  0.00008059  0.0089916 0.0000
 76  -1263.7762591713  -0.000056732460 0.00128420  0.00002043  0.0030942 0.0000
 77  -1263.7762697799  -0.000010608580 0.00613208  0.00008614  0.0005958 0.0000
 78  -1263.7762657240   0.000004055853 0.00007872  0.00000190  0.0035354 0.0000
 79  -1263.7762670703  -0.000001346306 0.00010104  0.00000190  0.0033323 0.0000
               *** Restarting incremental Fock matrix formation ***
                                   *** Resetting DIIS ***
 80  -1263.7762704260  -0.000003355705 0.00198981  0.00006454  0.0031521 0.0000
 81  -1263.7762505874   0.000019838627 0.00197285  0.00005255  0.0061153 0.0000
 82  -1263.7762775261  -0.000026938706 0.00079938  0.00001401  0.0021207 0.0000
 83  -1263.7762826115  -0.000005085388 0.00362130  0.00005490  0.0004115 0.0000
 84  -1263.7762827031  -0.000000091580 0.00018564  0.00000353  0.0021256 0.0000
 85  -1263.7762840436  -0.000001340559 0.00015944  0.00000225  0.0017350 0.0000
                 **** Energy Check signals convergence ****

               *****************************************************
               *                     SUCCESS                       *
               *           SCF CONVERGED AFTER  86 CYCLES          *
               *****************************************************


----------------
TOTAL SCF ENERGY
----------------

Total Energy       :        -1263.77628456 Eh          -34389.10101 eV

Components:
Nuclear Repulsion  :            0.00000000 Eh               0.00000 eV
Electronic Energy  :        -1263.77628456 Eh          -34389.10101 eV
One Electron Energy:        -1746.61292745 Eh          -47527.75402 eV
Two Electron Energy:          482.83664288 Eh           13138.65301 eV

Virial components:
Potential Energy   :        -2525.59098369 Eh          -68724.82457 eV
Kinetic Energy     :         1261.81469912 Eh           34335.72356 eV
Virial Ratio       :            2.00155457


DFT components:
N(Alpha)           :       15.000004942924 electrons
N(Beta)            :       11.000004989865 electrons
N(Total)           :       26.000009932790 electrons
E(X)               :      -54.597817291351 Eh       
E(C)               :       -1.143520447491 Eh       
E(XC)              :      -55.741337738843 Eh       
DFET-embed. en.    :        0.000000000000 Eh       

---------------
SCF CONVERGENCE
---------------

  Last Energy change         ...   -5.2068e-07  Tolerance :   1.0000e-06
  Last MAX-Density change    ...    1.1722e-04  Tolerance :   1.0000e-05
  Last RMS-Density change    ...    1.5640e-06  Tolerance :   1.0000e-06
  Last DIIS Error            ...    1.5675e-03  Tolerance :   1.0000e-06

             **** THE GBW FILE WAS UPDATED (66_Fe.gbw) ****
             **** DENSITY FILE WAS UPDATED (66_Fe.scfp) ****
             **** ENERGY FILE WAS UPDATED (66_Fe.en.tmp) ****
----------------------
UHF SPIN CONTAMINATION
----------------------

Warning: in a DFT calculation there is little theoretical justification to 
         calculate <S**2> as in Hartree-Fock theory. We will do it anyways
         but you should keep in mind that the values have only limited relevance

Expectation value of <S**2>     :     6.010968
Ideal value S*(S+1) for S=2.0   :     6.000000
Deviation                       :     0.010968

             **** THE GBW FILE WAS UPDATED (66_Fe.gbw) ****
             **** DENSITY FILE WAS UPDATED (66_Fe.scfp) ****
----------------
ORBITAL ENERGIES
----------------
                 SPIN UP ORBITALS
  NO   OCC          E(Eh)            E(eV) 
   0   1.0000    -255.548715     -6953.8341 
   1   1.0000     -29.849269      -812.2399 
   2   1.0000     -25.677691      -698.7255 
   3   1.0000     -25.667671      -698.4528 
   4   1.0000     -25.667391      -698.4452 
   5   1.0000      -3.444147       -93.7200 
   6   1.0000      -2.229227       -60.6603 
   7   1.0000      -2.203490       -59.9600 
   8   1.0000      -2.202774       -59.9405 
   9   1.0000      -0.271848        -7.3974 
  10   1.0000      -0.271673        -7.3926 
  11   1.0000      -0.259778        -7.0689 
  12   1.0000      -0.253423        -6.8960 
  13   1.0000      -0.215833        -5.8731 
  14   1.0000      -0.189895        -5.1673 
  15   0.0000      -0.051565        -1.4032 
  16   0.0000      -0.036502        -0.9933 
  17   0.0000      -0.036389        -0.9902 
  18   0.0000       0.023130         0.6294 
  19   0.0000       0.042441         1.1549 
  20   0.0000       0.044327         1.2062 
  21   0.0000       0.044349         1.2068 
  22   0.0000       0.077873         2.1190 
  23   0.0000       0.079369         2.1597 
  24   0.0000       0.081712         2.2235 
  25   0.0000       0.081721         2.2238 
  26   0.0000       0.084258         2.2928 
  27   0.0000       0.115357         3.1390 
  28   0.0000       0.185959         5.0602 
  29   0.0000       0.186012         5.0616 
  30   0.0000       0.193406         5.2628 
  31   0.0000       0.270916         7.3720 
  32   0.0000       0.271009         7.3745 
  33   0.0000       0.271159         7.3786 
  34   0.0000       0.274052         7.4573 
  35   0.0000       0.276247         7.5171 
  36   0.0000       0.503582        13.7032 
  37   0.0000       0.728241        19.8165 
  38   0.0000       0.746872        20.3234 
  39   0.0000       0.747080        20.3291 
  40   0.0000       0.822354        22.3774 
  41   0.0000       0.827086        22.5062 
  42   0.0000       0.827232        22.5101 
  43   0.0000       0.827943        22.5295 
  44   0.0000       0.828828        22.5536 
  45   0.0000       0.843627        22.9563 
  46   0.0000       0.843806        22.9611 
  47   0.0000       1.066622        29.0243 
  48   0.0000       1.066752        29.0278 
  49   0.0000       1.068591        29.0778 
  50   0.0000       1.083604        29.4864 
  51   0.0000       1.084720        29.5167 
  52   0.0000       2.646599        72.0176 
  53   0.0000       2.649898        72.1074 
  54   0.0000       2.650099        72.1129 
  55   0.0000       2.651131        72.1409 
  56   0.0000       2.661970        72.4359 
  57   0.0000       2.684716        73.0548 
  58   0.0000       2.684732        73.0553 
  59   0.0000       2.868882        78.0663 
  60   0.0000       2.978926        81.0607 
  61   0.0000       3.004669        81.7612 
  62   0.0000       3.005148        81.7742 
  63   0.0000       3.337290        90.8123 
  64   0.0000       3.338007        90.8318 
  65   0.0000       3.338195        90.8369 
  66   0.0000       3.339212        90.8646 
  67   0.0000       3.346258        91.0563 
  68   0.0000       3.355060        91.2958 
  69   0.0000       3.355134        91.2978 
  70   0.0000       3.375344        91.8478 
  71   0.0000       3.377183        91.8978 
  72   0.0000       4.457887       121.3053 
  73   0.0000       4.457993       121.3082 
  74   0.0000       4.466408       121.5371 
  75   0.0000       4.480299       121.9151 
  76   0.0000       4.508401       122.6798 
  77   0.0000       8.901647       242.2261 
  78   0.0000       8.915881       242.6135 
  79   0.0000       8.915992       242.6165 
  80   0.0000       8.926018       242.8893 
  81   0.0000       8.927086       242.9184 
  82   0.0000       8.946926       243.4582 
  83   0.0000       8.947356       243.4699 
  84   0.0000       9.760711       265.6025 
  85   0.0000       9.766100       265.7491 
  86   0.0000       9.766312       265.7549 
  87   0.0000       9.777385       266.0562 
  88   0.0000       9.786213       266.2964 
  89   0.0000       9.790166       266.4040 
  90   0.0000       9.790604       266.4159 
  91   0.0000       9.811509       266.9847 
  92   0.0000       9.814804       267.0744 

                 SPIN DOWN ORBITALS
  NO   OCC          E(Eh)            E(eV) 
   0   1.0000    -255.541601     -6953.6405 
   1   1.0000     -29.826261      -811.6138 
   2   1.0000     -25.637256      -697.6252 
   3   1.0000     -25.637103      -697.6210 
   4   1.0000     -25.636470      -697.6038 
   5   1.0000      -3.260368       -88.7191 
   6   1.0000      -2.046742       -55.6947 
   7   1.0000      -2.024044       -55.0770 
   8   1.0000      -2.023544       -55.0634 
   9   1.0000      -0.163447        -4.4476 
  10   1.0000      -0.150074        -4.0837 
  11   0.0000      -0.110471        -3.0061 
  12   0.0000      -0.067851        -1.8463 
  13   0.0000      -0.066322        -1.8047 
  14   0.0000      -0.040279        -1.0961 
  15   0.0000      -0.011275        -0.3068 
  16   0.0000      -0.011093        -0.3018 
  17   0.0000       0.016098         0.4381 
  18   0.0000       0.064464         1.7542 
  19   0.0000       0.087511         2.3813 
  20   0.0000       0.089658         2.4397 
  21   0.0000       0.093995         2.5577 
  22   0.0000       0.119163         3.2426 
  23   0.0000       0.119638         3.2555 
  24   0.0000       0.124503         3.3879 
  25   0.0000       0.124695         3.3931 
  26   0.0000       0.125008         3.4017 
  27   0.0000       0.172547         4.6952 
  28   0.0000       0.246851         6.7172 
  29   0.0000       0.248060         6.7501 
  30   0.0000       0.262163         7.1338 
  31   0.0000       0.340099         9.2546 
  32   0.0000       0.345938         9.4134 
  33   0.0000       0.346494         9.4286 
  34   0.0000       0.347543         9.4571 
  35   0.0000       0.348241         9.4761 
  36   0.0000       0.588711        16.0196 
  37   0.0000       0.841097        22.8874 
  38   0.0000       0.843447        22.9514 
  39   0.0000       0.851498        23.1704 
  40   0.0000       0.900274        24.4977 
  41   0.0000       0.902020        24.5452 
  42   0.0000       0.902436        24.5565 
  43   0.0000       0.906680        24.6720 
  44   0.0000       0.915026        24.8991 
  45   0.0000       0.916078        24.9277 
  46   0.0000       0.923180        25.1210 
  47   0.0000       1.168314        31.7914 
  48   0.0000       1.191661        32.4267 
  49   0.0000       1.218180        33.1484 
  50   0.0000       1.219133        33.1743 
  51   0.0000       1.227980        33.4150 
  52   0.0000       2.759299        75.0843 
  53   0.0000       2.766315        75.2753 
  54   0.0000       2.768766        75.3420 
  55   0.0000       2.778402        75.6042 
  56   0.0000       2.786536        75.8255 
  57   0.0000       2.787414        75.8494 
  58   0.0000       2.805246        76.3346 
  59   0.0000       2.971500        80.8586 
  60   0.0000       3.101127        84.3859 
  61   0.0000       3.112519        84.6960 
  62   0.0000       3.114560        84.7515 
  63   0.0000       3.428613        93.2973 
  64   0.0000       3.443636        93.7061 
  65   0.0000       3.446154        93.7746 
  66   0.0000       3.449058        93.8536 
  67   0.0000       3.450623        93.8962 
  68   0.0000       3.455316        94.0239 
  69   0.0000       3.457898        94.0942 
  70   0.0000       3.460713        94.1708 
  71   0.0000       3.463967        94.2593 
  72   0.0000       4.573408       124.4488 
  73   0.0000       4.574847       124.4879 
  74   0.0000       4.648798       126.5002 
  75   0.0000       4.649038       126.5068 
  76   0.0000       4.656940       126.7218 
  77   0.0000       9.073949       246.9147 
  78   0.0000       9.076604       246.9870 
  79   0.0000       9.079387       247.0627 
  80   0.0000       9.097712       247.5613 
  81   0.0000       9.098681       247.5877 
  82   0.0000       9.101877       247.6747 
  83   0.0000       9.169065       249.5029 
  84   0.0000       9.841921       267.8123 
  85   0.0000       9.860365       268.3142 
  86   0.0000       9.863832       268.4085 
  87   0.0000       9.888564       269.0815 
  88   0.0000       9.889202       269.0989 
  89   0.0000       9.891783       269.1691 
  90   0.0000       9.894664       269.2475 
  91   0.0000       9.896936       269.3093 
  92   0.0000       9.920486       269.9502 

                    ********************************
                    * MULLIKEN POPULATION ANALYSIS *
                    ********************************

--------------------------------------------
MULLIKEN ATOMIC CHARGES AND SPIN POPULATIONS
--------------------------------------------
   0 Fe:    0.000000    4.000000
Sum of atomic charges         :    0.0000000
Sum of atomic spin populations:    4.0000000

-----------------------------------------------------
MULLIKEN REDUCED ORBITAL CHARGES AND SPIN POPULATIONS
-----------------------------------------------------
CHARGE
  0 Fes       :     7.431229  s :     7.431229
      pz      :     3.999935  p :    11.999694
      px      :     3.999880
      py      :     3.999878
      dz2     :     1.278314  d :     6.568538
      dxz     :     1.270527
      dyz     :     1.222672
      dx2y2   :     1.004766
      dxy     :     1.792259
      f0      :     0.000024  f :     0.000306
      f+1     :     0.000037
      f-1     :     0.000035
      f+2     :     0.000011
      f-2     :     0.000067
      f+3     :     0.000072
      f-3     :     0.000062
      g0      :     0.000028  g :     0.000233
      g+1     :     0.000019
      g-1     :     0.000018
      g+2     :     0.000005
      g-2     :     0.000036
      g+3     :     0.000024
      g-3     :     0.000034
      g+4     :     0.000064
      g-4     :     0.000004

SPIN
  0 Fes       :     0.567884  s :     0.567884
      pz      :     0.000047  p :     0.000178
      px      :     0.000066
      py      :     0.000065
      dz2     :     0.722002  d :     3.432156
      dxz     :     0.729717
      dyz     :     0.777499
      dx2y2   :     0.995208
      dxy     :     0.207731
      f0      :    -0.000001  f :    -0.000178
      f+1     :    -0.000021
      f-1     :    -0.000017
      f+2     :    -0.000007
      f-2     :    -0.000035
      f+3     :    -0.000050
      f-3     :    -0.000047
      g0      :     0.000003  g :    -0.000040
      g+1     :     0.000008
      g-1     :     0.000009
      g+2     :     0.000004
      g-2     :    -0.000004
      g+3     :    -0.000005
      g-3     :    -0.000013
      g+4     :    -0.000045
      g-4     :     0.000001


                     *******************************
                     * LOEWDIN POPULATION ANALYSIS *
                     *******************************

-------------------------------------------
LOEWDIN ATOMIC CHARGES AND SPIN POPULATIONS
-------------------------------------------
   0 Fe:    0.000000    4.000000

----------------------------------------------------
LOEWDIN REDUCED ORBITAL CHARGES AND SPIN POPULATIONS
----------------------------------------------------
CHARGE
  0 Fes       :     7.431229  s :     7.431229
      pz      :     3.999935  p :    11.999694
      px      :     3.999880
      py      :     3.999878
      dz2     :     1.278314  d :     6.568538
      dxz     :     1.270527
      dyz     :     1.222672
      dx2y2   :     1.004766
      dxy     :     1.792259
      f0      :     0.000024  f :     0.000306
      f+1     :     0.000037
      f-1     :     0.000035
      f+2     :     0.000011
      f-2     :     0.000067
      f+3     :     0.000072
      f-3     :     0.000062
      g0      :     0.000028  g :     0.000233
      g+1     :     0.000019
      g-1     :     0.000018
      g+2     :     0.000005
      g-2     :     0.000036
      g+3     :     0.000024
      g-3     :     0.000034
      g+4     :     0.000064
      g-4     :     0.000004

SPIN
  0 Fes       :     0.567884  s :     0.567884
      pz      :     0.000047  p :     0.000178
      px      :     0.000066
      py      :     0.000065
      dz2     :     0.722002  d :     3.432156
      dxz     :     0.729717
      dyz     :     0.777499
      dx2y2   :     0.995208
      dxy     :     0.207731
      f0      :    -0.000001  f :    -0.000178
      f+1     :    -0.000021
      f-1     :    -0.000017
      f+2     :    -0.000007
      f-2     :    -0.000035
      f+3     :    -0.000050
      f-3     :    -0.000047
      g0      :     0.000003  g :    -0.000040
      g+1     :     0.000008
      g-1     :     0.000009
      g+2     :     0.000004
      g-2     :    -0.000004
      g+3     :    -0.000005
      g-3     :    -0.000013
      g+4     :    -0.000045
      g-4     :     0.000001


                      *****************************
                      * MAYER POPULATION ANALYSIS *
                      *****************************

  NA   - Mulliken gross atomic population
  ZA   - Total nuclear charge
  QA   - Mulliken gross atomic charge
  VA   - Mayer's total valence
  BVA  - Mayer's bonded valence
  FA   - Mayer's free valence

  ATOM       NA         ZA         QA         VA         BVA        FA
  0 Fe    26.0000    26.0000     0.0000     4.0219     0.0000     4.0219

  Mayer bond orders larger than 0.100000


-------
TIMINGS
-------

Total SCF time: 0 days 0 hours 0 min 12 sec 

Total time                  ....      12.466 sec
Sum of individual times     ....      12.253 sec  ( 98.3%)

Fock matrix formation       ....      11.671 sec  ( 93.6%)
  Split-RI-J                ....       8.726 sec  ( 74.8% of F)
  XC integration            ....       2.717 sec  ( 23.3% of F)
    Basis function eval.    ....       0.258 sec  (  9.5% of XC)
    Density eval.           ....       0.188 sec  (  6.9% of XC)
    XC-Functional eval.     ....       0.060 sec  (  2.2% of XC)
    XC-Potential eval.      ....       0.530 sec  ( 19.5% of XC)
Diagonalization             ....       0.203 sec  (  1.6%)
Density matrix formation    ....       0.036 sec  (  0.3%)
Population analysis         ....       0.004 sec  (  0.0%)
Initial guess               ....       0.114 sec  (  0.9%)
Orbital Transformation      ....       0.000 sec  (  0.0%)
Orbital Orthonormalization  ....       0.000 sec  (  0.0%)
DIIS solution               ....       0.096 sec  (  0.8%)
Grid generation             ....       0.128 sec  (  1.0%)


-------------------------------------------------------------------------------
                          DFT DISPERSION CORRECTION                            
                                                                               
                              DFTD3 V3.1  Rev 1                                
                          USING Becke-Johnson damping                          
-------------------------------------------------------------------------------
The SCAN functional is recognized
Active option DFTDOPT                   ...         4   

molecular C6(AA) [au] = 491.327720 


            DFT-D V3
 parameters
 s6 scaling factor         :     1.0000 
 a1 scaling factor         :     0.5380 
 s8 scaling factor         :     0.0000 
 a2 scaling factor         :     5.4200 
 ad hoc parameters k1-k3   :    16.0000     1.3333    -4.0000 

 Edisp/kcal,au: -0.000000000000  -0.000000000000 
 E6   /kcal   :  -0.000000000 
 E8   /kcal   :  -0.000000000 
 % E8         :          -nan 

-------------------------   ----------------
Dispersion correction            0.000000000
-------------------------   ----------------


-------------------------   --------------------
FINAL SINGLE POINT ENERGY     -1263.776284564302
-------------------------   --------------------


                            ***************************************
                            *     ORCA property calculations      *
                            ***************************************

                                    ---------------------
                                    Active property flags
                                    ---------------------
   (+) Dipole Moment


------------------------------------------------------------------------------
                       ORCA ELECTRIC PROPERTIES CALCULATION
------------------------------------------------------------------------------

Dipole Moment Calculation                       ... on
Quadrupole Moment Calculation                   ... off
Polarizability Calculation                      ... off
GBWName                                         ... 66_Fe.gbw
Electron density file                           ... 66_Fe.scfp
The origin for moment calculation is the CENTER OF MASS  = ( 0.000000,  0.000000  0.000000)

-------------
DIPOLE MOMENT
-------------
                                X             Y             Z
Electronic contribution:     -0.00000      -0.00000      -0.00000
Nuclear contribution   :      0.00000       0.00000       0.00000
                        -----------------------------------------
Total Dipole Moment    :     -0.00000      -0.00000      -0.00000
                        -----------------------------------------
Magnitude (a.u.)       :      0.00000
Magnitude (Debye)      :      0.00000



--------------------
Rotational spectrum 
--------------------
 
Rotational constants in cm-1:     0.000000     0.000000     0.000000 
Rotational constants in MHz :     0.000000     0.000000     0.000000 

 Dipole components along the rotational axes: 
x,y,z [a.u.] :    -0.000001    -0.000000    -0.000001 
x,y,z [Debye]:    -0.000003    -0.000001    -0.000002 

 

Timings for individual modules:

Sum of individual times         ...       15.334 sec (=   0.256 min)
GTO integral calculation        ...        2.507 sec (=   0.042 min)  16.3 %
SCF iterations                  ...       12.827 sec (=   0.214 min)  83.7 %
                             ****ORCA TERMINATED NORMALLY****
TOTAL RUN TIME: 0 days 0 hours 0 minutes 15 seconds 925 msec
