
                                 *****************
                                 * O   R   C   A *
                                 *****************

           --- An Ab Initio, DFT and Semiempirical electronic structure package ---

                  #######################################################
                  #                        -***-                        #
                  #          Department of theory and spectroscopy      #
                  #               Directorship: Frank Neese             #
                  #        Max Planck Institute fuer Kohlenforschung    #
                  #                Kaiser Wilhelm Platz 1               #
                  #                 D-45470 Muelheim/Ruhr               #
                  #                      Germany                        #
                  #                                                     #
                  #                  All rights reserved                #
                  #                        -***-                        #
                  #######################################################


                         Program Version 4.2.0 -  RELEASE  -


 With contributions from (in alphabetic order):
   Daniel Aravena         : Magnetic Suceptibility
   Michael Atanasov       : Ab Initio Ligand Field Theory (pilot matlab implementation)
   Alexander A. Auer      : GIAO ZORA, VPT2
   Ute Becker             : Parallelization
   Giovanni Bistoni       : ED, misc. LED, open-shell LED, HFLED
   Martin Brehm           : Molecular dynamics
   Dmytro Bykov           : SCF Hessian
   Vijay G. Chilkuri      : MRCI spin determinant printing, contributions to CSF-ICE
   Dipayan Datta          : RHF DLPNO-CCSD density
   Achintya Kumar Dutta   : EOM-CC, STEOM-CC
   Dmitry Ganyushin       : Spin-Orbit,Spin-Spin,Magnetic field MRCI
   Miquel Garcia          : C-PCM Hessian, Gaussian charge scheme
   Yang Guo               : DLPNO-NEVPT2, CIM, IAO-localization
   Andreas Hansen         : Spin unrestricted coupled pair/coupled cluster methods
   Benjamin Helmich-Paris : CASSCF linear response (MC-RPA)
   Lee Huntington         : MR-EOM, pCC
   Robert Izsak           : Overlap fitted RIJCOSX, COSX-SCS-MP3, EOM
   Christian Kollmar      : KDIIS, OOCD, Brueckner-CCSD(T), CCSD density
   Simone Kossmann        : Meta GGA functionals, TD-DFT gradient, OOMP2, MP2 Hessian
   Martin Krupicka        : AUTO-CI
   Lucas Lang             : DCDCAS
   Dagmar Lenk            : GEPOL surface, SMD
   Dimitrios Liakos       : Extrapolation schemes; Compound Job, initial MDCI parallelization
   Dimitrios Manganas     : Further ROCIS development; embedding schemes
   Dimitrios Pantazis     : SARC Basis sets
   Taras Petrenko         : DFT Hessian,TD-DFT gradient, ASA, ECA, R-Raman, ABS, FL, XAS/XES, NRVS
   Peter Pinski           : DLPNO-MP2, DLPNO-MP2 Gradient
   Christoph Reimann      : Effective Core Potentials
   Marius Retegan         : Local ZFS, SOC
   Christoph Riplinger    : Optimizer, TS searches, QM/MM, DLPNO-CCSD(T), (RO)-DLPNO pert. Triples
   Tobias Risthaus        : Range-separated hybrids, TD-DFT gradient, RPA, STAB
   Michael Roemelt        : Original ROCIS implementation
   Masaaki Saitow         : Open-shell DLPNO-CCSD energy and density
   Barbara Sandhoefer     : DKH picture change effects
   Avijit Sen             : IP-ROCIS
   Kantharuban Sivalingam : CASSCF convergence, NEVPT2, FIC-MRCI
   Bernardo de Souza      : ESD, SOC TD-DFT
   Georgi Stoychev        : AutoAux, RI-MP2 NMR
   Willem Van den Heuvel  : Paramagnetic NMR
   Boris Wezisla          : Elementary symmetry handling
   Frank Wennmohs         : Technical directorship


 We gratefully acknowledge several colleagues who have allowed us to
 interface, adapt or use parts of their codes:
   Stefan Grimme, W. Hujo, H. Kruse,             : VdW corrections, initial TS optimization,
                  C. Bannwarth                     DFT functionals, gCP, sTDA/sTD-DF
   Ed Valeev, F. Pavosevic, A. Kumar             : LibInt (2-el integral package), F12 methods
   Garnet Chan, S. Sharma, J. Yang, R. Olivares  : DMRG
   Ulf Ekstrom                                   : XCFun DFT Library
   Mihaly Kallay                                 : mrcc  (arbitrary order and MRCC methods)
   Andreas Klamt, Michael Diedenhofen            : otool_cosmo (COSMO solvation model)
   Jiri Pittner, Ondrej Demel                    : Mk-CCSD
   Frank Weinhold                                : gennbo (NPA and NBO analysis)
   Christopher J. Cramer and Donald G. Truhlar   : smd solvation model
   Lars Goerigk                                  : TD-DFT with DH, B97 family of functionals
   V. Asgeirsson, H. Jonsson                     : NEB implementation
   FAccTs GmbH                                   : IRC, NEB, NEB-TS, Multilevel, MM, QM/MM, CI optimization
   S Lehtola, MJT Oliveira, MAL Marques          : LibXC Library


 Your calculation uses the libint2 library for the computation of 2-el integrals
 For citations please refer to: http://libint.valeyev.net

 Your ORCA version has been built with support for libXC version: 4.2.3
 For citations please refer to: https://tddft.org/programs/libxc/

 This ORCA versions uses:
   CBLAS   interface :  Fast vector & matrix operations
   LAPACKE interface :  Fast linear algebra routines
   SCALAPACK package :  Parallel linear algebra routines


Your calculation utilizes the atom-pairwise dispersion correction
with the Becke-Johnson damping scheme (D3BJ)
Cite in your paper:
S.Grimme, S.Ehrlich, L.Goerigk, J Comput Chem, (2011), 32, 1456–1465 
S.Grimme, J.Antony, S.Ehrlich and H.Krieg, J.Chem.Phys., 132, (2010), 154104 
   

----- Orbital basis set information -----
Your calculation utilizes the basis: aug-cc-pVTZ 
    H, B-Ne : Obtained from the ccRepo (grant-hill.group.shef.ac.uk/ccrepo) Feb. 2017
              R. A. Kendall, T. H. Dunning, Jr., R. J. Harrison, J. Chem. Phys. 96, 6796 (1992)
         He : Obtained from the ccRepo (grant-hill.group.shef.ac.uk/ccrepo) Feb. 2017
              D. E. Woon, T. H. Dunning, Jr., J. Chem. Phys. 100, 2975 (1994)
  Li-Be, Na : Obtained from the ccRepo (grant-hill.group.shef.ac.uk/ccrepo) Feb. 2017
              B. P. Prascher, D. E. Woon, K. A. Peterson, T. H. Dunning, Jr., A. K. Wilson, Theor. Chem. Acc. 128, 69 (2011)
         Mg : Obtained from the Peterson Research Group Website (tyr0.chem.wsu.edu/~kipeters) Feb. 2017
              B. P. Prascher, D. E. Woon, K. A. Peterson, T. H. Dunning, Jr., A. K. Wilson, Theor. Chem. Acc. 128, 69 (2011)
      Al-Ar : Obtained from the ccRepo (grant-hill.group.shef.ac.uk/ccrepo) Feb. 2017
              D. E. Woon, T. H. Dunning, Jr., J. Chem. Phys. 98, 1358 (1993)
      Sc-Zn : Obtained from the ccRepo (grant-hill.group.shef.ac.uk/ccrepo) Feb. 2017
              N. B. Balabanov, K. A. Peterson, J. Chem. Phys. 123, 064107 (2005)
              N. B. Balabanov, K. A. Peterson, J. Chem. Phys. 125, 074110 (2006)
      Ga-Kr : Obtained from the ccRepo (grant-hill.group.shef.ac.uk/ccrepo) Feb. 2017
              A. K. Wilson, D. E. Woon, K. A. Peterson, T. H. Dunning, Jr., J. Chem. Phys. 110, 7667 (1999)
     Ag, Au : Obtained from the Peterson Research Group Website (tyr0.chem.wsu.edu/~kipeters) Feb. 2017
              K. A. Peterson, C. Puzzarini, Theor. Chem. Acc. 114, 283 (2005)

----- AuxJ basis set information -----
Your calculation utilizes the auxiliary basis: def2/J
   F. Weigend, Phys. Chem. Chem. Phys. 8, 1057 (2006).

================================================================================
                                        WARNINGS
                       Please study these warnings very carefully!
================================================================================


WARNING: your system is open-shell and RHF/RKS was chosen
  ===> : WILL SWITCH to UHF/UKS


INFO   : the flag for use of LIBINT has been found!

================================================================================
                                       INPUT FILE
================================================================================
NAME = 05_ScO.in
|  1> #
|  2> # 05_ScO tpss/aug-cc-pvtz
|  3> #
|  4> ! tpss d3bj aug-cc-pvtz def2/j grid4 nofinalgrid
|  5> 
|  6> *xyz 0 2
|  7>   Sc  0.00000000000000      0.00000000000000      0.16492994527036
|  8>   O   0.00000000000000      0.00000000000000      1.83507005472964
|  9> *
| 10> 
| 11> %pal
| 12> nprocs 24
| 13> end
| 14> 
| 15> 
| 16>                          ****END OF INPUT****
================================================================================

                       ****************************
                       * Single Point Calculation *
                       ****************************

---------------------------------
CARTESIAN COORDINATES (ANGSTROEM)
---------------------------------
  Sc     0.000000    0.000000    0.164930
  O      0.000000    0.000000    1.835070

----------------------------
CARTESIAN COORDINATES (A.U.)
----------------------------
  NO LB      ZA    FRAG     MASS         X           Y           Z
   0 Sc   21.0000    0    44.960    0.000000    0.000000    0.311672
   1 O     8.0000    0    15.999    0.000000    0.000000    3.467780

--------------------------------
INTERNAL COORDINATES (ANGSTROEM)
--------------------------------
 Sc     0   0   0     0.000000000000     0.00000000     0.00000000
 O      1   0   0     1.670140109459     0.00000000     0.00000000

---------------------------
INTERNAL COORDINATES (A.U.)
---------------------------
 Sc     0   0   0     0.000000000000     0.00000000     0.00000000
 O      1   0   0     3.156107412155     0.00000000     0.00000000

---------------------
BASIS SET INFORMATION
---------------------
There are 2 groups of distinct atoms

 Group   1 Type Sc  : 116s77p23d3f2g contracted to 8s7p5d3f2g pattern {19191919191911/151515151511/77711/111/11}
 Group   2 Type O   : 19s6p3d2f contracted to 5s4p3d2f pattern {88111/3111/111/11}

Atom   0Sc   basis set group =>   1
Atom   1O    basis set group =>   2
---------------------------------
AUXILIARY/J BASIS SET INFORMATION
---------------------------------
There are 2 groups of distinct atoms

 Group   1 Type Sc  : 19s5p5d3f3g contracted to 8s5p5d2f3g pattern {121111111/11111/11111/21/111}
 Group   2 Type O   : 12s5p4d2f1g contracted to 6s4p3d1f1g pattern {711111/2111/211/2/1}

Atom   0Sc   basis set group =>   1
Atom   1O    basis set group =>   2


           ************************************************************
           *        Program running with 24 parallel MPI-processes    *
           *              working on a common directory               *
           ************************************************************
------------------------------------------------------------------------------
                           ORCA GTO INTEGRAL CALCULATION
                           -- RI-GTO INTEGRALS CHOSEN --
------------------------------------------------------------------------------

                         BASIS SET STATISTICS AND STARTUP INFO

Gaussian basis set:
 # of primitive gaussian shells          ...  251
 # of primitive gaussian functions       ...  567
 # of contracted shells                  ...   39
 # of contracted basis functions         ...  139
 Highest angular momentum                ...    4
 Maximum contraction depth               ...   19
Auxiliary gaussian basis set:
 # of primitive gaussian shells          ...   59
 # of primitive gaussian functions       ...  177
 # of contracted shells                  ...   38
 # of contracted aux-basis functions     ...  138
 Highest angular momentum                ...    4
 Maximum contraction depth               ...   12
Ratio of auxiliary to basis functions    ...  0.99
Integral package used                  ... LIBINT
 One Electron integrals                  ... done
 Ordering auxiliary basis shells         ... done
 Integral threshhold             Thresh  ...  1.000e-10
 Primitive cut-off               TCut    ...  1.000e-11
 Pre-screening matrix                    ... done
 Shell pair data                         ... 
 Ordering of the shell pairs             ... done (   0.000 sec) 780 of 780 pairs
 Determination of significant pairs      ... done (   0.000 sec)
 Creation of shell pair data             ... done (   0.001 sec)
 Storage of shell pair data              ... done (   0.002 sec)
 Shell pair data done in (   0.003 sec)
 Computing two index integrals           ... done
 Cholesky decomposition of the V-matrix  ... done


Timings:
 Total evaluation time                   ...   2.705 sec (  0.045 min)
 One electron matrix time                ...   0.048 sec (  0.001 min) =  1.8%
 Schwartz matrix evaluation time         ...   2.625 sec (  0.044 min) = 97.0%
 Two index repulsion integral time       ...   0.002 sec (  0.000 min) =  0.1%
 Cholesky decomposition of V             ...   0.001 sec (  0.000 min) =  0.0%
 Three index repulsion integral time     ...   0.000 sec (  0.000 min) =  0.0%



           ************************************************************
           *        Program running with 24 parallel MPI-processes    *
           *              working on a common directory               *
           ************************************************************
-------------------------------------------------------------------------------
                                 ORCA SCF
-------------------------------------------------------------------------------

------------
SCF SETTINGS
------------
Hamiltonian:
 Density Functional     Method          .... DFT(GTOs)
 Exchange Functional    Exchange        .... TPSS
 Correlation Functional Correlation     .... TPSS
 LDA part of GGA corr.  LDAOpt          .... PW91-LDA
 Gradients option       PostSCFGGA      .... off
   Density functional embedding theory  .... OFF
   NL short-range parameter             ....  5.000000
 RI-approximation to the Coulomb term is turned on
   Number of auxiliary basis functions  .... 138


General Settings:
 Integral files         IntName         .... 05_ScO
 Hartree-Fock type      HFTyp           .... UHF
 Total Charge           Charge          ....    0
 Multiplicity           Mult            ....    2
 Number of Electrons    NEL             ....   29
 Basis Dimension        Dim             ....  139
 Nuclear Repulsion      ENuc            ....     53.2301275150 Eh

Convergence Acceleration:
 DIIS                   CNVDIIS         .... on
   Start iteration      DIISMaxIt       ....    12
   Startup error        DIISStart       ....  0.200000
   # of expansion vecs  DIISMaxEq       ....     5
   Bias factor          DIISBfac        ....   1.050
   Max. coefficient     DIISMaxC        ....  10.000
 Newton-Raphson         CNVNR           .... off
 SOSCF                  CNVSOSCF        .... off
 Level Shifting         CNVShift        .... on
   Level shift para.    LevelShift      ....    0.2500
   Turn off err/grad.   ShiftErr        ....    0.0010
 Zerner damping         CNVZerner       .... off
 Static damping         CNVDamp         .... on
   Fraction old density DampFac         ....    0.7000
   Max. Damping (<1)    DampMax         ....    0.9800
   Min. Damping (>=0)   DampMin         ....    0.0000
   Turn off err/grad.   DampErr         ....    0.1000
 Fernandez-Rico         CNVRico         .... off

SCF Procedure:
 Maximum # iterations   MaxIter         ....   125
 SCF integral mode      SCFMode         .... Direct
   Integral package                     .... LIBINT
 Reset frequency        DirectResetFreq ....    20
 Integral Threshold     Thresh          ....  1.000e-10 Eh
 Primitive CutOff       TCut            ....  1.000e-11 Eh

Convergence Tolerance:
 Convergence Check Mode ConvCheckMode   .... Total+1el-Energy
 Convergence forced     ConvForced      .... 0
 Energy Change          TolE            ....  1.000e-06 Eh
 1-El. energy change                    ....  1.000e-03 Eh
 DIIS Error             TolErr          ....  1.000e-06


Diagonalization of the overlap matrix:
Smallest eigenvalue                        ... 5.912e-05
Time for diagonalization                   ...    0.006 sec
Threshold for overlap eigenvalues          ... 1.000e-08
Number of eigenvalues below threshold      ... 0
Time for construction of square roots      ...    0.002 sec
Total time needed                          ...    0.008 sec

-------------------
DFT GRID GENERATION
-------------------

General Integration Accuracy     IntAcc      ...  4.670
Radial Grid Type                 RadialGrid  ... Gauss-Chebyshev
Angular Grid (max. acc.)         AngularGrid ... Lebedev-302
Angular grid pruning method      GridPruning ... 3 (G Style)
Weight generation scheme         WeightScheme... Becke
Basis function cutoff            BFCut       ...    1.0000e-10
Integration weight cutoff        WCut        ...    1.0000e-14
Grids for H and He will be reduced by one unit

# of grid points (after initial pruning)     ...  15876 (   0.0 sec)
# of grid points (after weights+screening)   ...  15826 (   0.0 sec)
nearest neighbour list constructed           ...    0.0 sec
Grid point re-assignment to atoms done       ...    0.0 sec
Grid point division into batches done        ...    0.1 sec
Reduced shell lists constructed in    0.1 sec

Total number of grid points                  ...    15826
Total number of batches                      ...      248
Average number of points per batch           ...       63
Average number of grid points per atom       ...     7913
Average number of shells per batch           ...    20.67 (52.99%)
Average number of basis functions per batch  ...    66.50 (47.84%)
Average number of large shells per batch     ...    13.58 (65.73%)
Average number of large basis fcns per batch ...    45.08 (67.79%)
Maximum spatial batch extension              ...  30.95, 34.02, 18.21 au
Average spatial batch extension              ...   0.97,  1.03,  0.71 au

Time for grid setup =    0.169 sec

------------------------------
INITIAL GUESS: MODEL POTENTIAL
------------------------------
Loading Hartree-Fock densities                     ... done
Calculating cut-offs                               ... done
Setting up the integral package                    ... done
Initializing the effective Hamiltonian             ... done
Starting the Coulomb interaction                   ... done (   0.0 sec)
Reading the grid                                   ... done
Mapping shells                                     ... done
Starting the XC term evaluation                    ... done (   0.0 sec)
  promolecular density results
     # of electrons  =     29.000005899
     EX              =    -45.958536868
     EC              =     -1.098558406
     EX+EC           =    -47.057095275
Transforming the Hamiltonian                       ... done (   0.0 sec)
Diagonalizing the Hamiltonian                      ... done (   0.0 sec)
Back transforming the eigenvectors                 ... done (   0.0 sec)
Now organizing SCF variables                       ... done
                      ------------------
                      INITIAL GUESS DONE (   0.3 sec)
                      ------------------
--------------
SCF ITERATIONS
--------------
ITER       Energy         Delta-E        Max-DP      RMS-DP      [F,P]     Damp
               ***  Starting incremental Fock matrix formation  ***
  0   -835.6308957744   0.000000000000 0.18327827  0.00295935  0.5592805 0.7000
  1   -835.7136317511  -0.082735976700 0.19306195  0.00353582  0.1574667 0.7000
                               ***Turning on DIIS***
  2   -835.8215378259  -0.107906074849 0.07050252  0.00164345  0.1132704 0.7000
  3   -835.8900316289  -0.068493802952 0.10397773  0.00211768  0.0715315 0.0000
  4   -835.9633455888  -0.073313959914 0.01711995  0.00023773  0.1749581 0.7000
  5   -835.9749963398  -0.011650751040 0.02416686  0.00026468  0.1561998 0.7000
  6   -835.9871869868  -0.012190646951 0.02908370  0.00028869  0.1335646 0.7000
  7   -835.9970551729  -0.009868186139 0.03475286  0.00033560  0.1125071 0.7000
  8   -836.0048274749  -0.007772301989 0.14258780  0.00153456  0.0915158 0.0000
  9   -836.0205949811  -0.015767506203 0.02733680  0.00059430  0.0043230 0.0000
 10   -836.0206856396  -0.000090658515 0.03122421  0.00028330  0.0038994 0.0000
 11   -836.0207222325  -0.000036592847 0.01526057  0.00012713  0.0023104 0.0000
 12   -836.0207408503  -0.000018617823 0.02473503  0.00018113  0.0008647 0.0000
 13   -836.0207558908  -0.000015040501 0.00300168  0.00002967  0.0006524 0.0000
 14   -836.0207571742  -0.000001283419 0.00305147  0.00002972  0.0001460 0.0000
 15   -836.0207572979  -0.000000123673 0.00031932  0.00000628  0.0002995 0.0000
                 **** Energy Check signals convergence ****

               *****************************************************
               *                     SUCCESS                       *
               *           SCF CONVERGED AFTER  16 CYCLES          *
               *****************************************************


----------------
TOTAL SCF ENERGY
----------------

Total Energy       :         -836.02075728 Eh          -22749.28136 eV

Components:
Nuclear Repulsion  :           53.23012751 Eh            1448.46541 eV
Electronic Energy  :         -889.25088480 Eh          -24197.74677 eV
One Electron Energy:        -1251.86412589 Eh          -34064.95469 eV
Two Electron Energy:          362.61324109 Eh            9867.20793 eV

Virial components:
Potential Energy   :        -1670.42801957 Eh          -45454.65728 eV
Kinetic Energy     :          834.40726228 Eh           22705.37593 eV
Virial Ratio       :            2.00193370


DFT components:
N(Alpha)           :       14.999995297017 electrons
N(Beta)            :       13.999995990526 electrons
N(Total)           :       28.999991287544 electrons
E(X)               :      -46.530867700646 Eh       
E(C)               :       -1.118303109593 Eh       
E(XC)              :      -47.649170810239 Eh       
DFET-embed. en.    :        0.000000000000 Eh       

---------------
SCF CONVERGENCE
---------------

  Last Energy change         ...    1.5175e-08  Tolerance :   1.0000e-06
  Last MAX-Density change    ...    6.2436e-05  Tolerance :   1.0000e-05
  Last RMS-Density change    ...    1.2674e-06  Tolerance :   1.0000e-06
  Last DIIS Error            ...    8.1661e-05  Tolerance :   1.0000e-06

             **** THE GBW FILE WAS UPDATED (05_ScO.gbw) ****
             **** DENSITY FILE WAS UPDATED (05_ScO.scfp) ****
             **** ENERGY FILE WAS UPDATED (05_ScO.en.tmp) ****
----------------------
UHF SPIN CONTAMINATION
----------------------

Warning: in a DFT calculation there is little theoretical justification to 
         calculate <S**2> as in Hartree-Fock theory. We will do it anyways
         but you should keep in mind that the values have only limited relevance

Expectation value of <S**2>     :     0.751304
Ideal value S*(S+1) for S=0.5   :     0.750000
Deviation                       :     0.001304

             **** THE GBW FILE WAS UPDATED (05_ScO.gbw) ****
             **** DENSITY FILE WAS UPDATED (05_ScO.scfp) ****
----------------
ORBITAL ENERGIES
----------------
                 SPIN UP ORBITALS
  NO   OCC          E(Eh)            E(eV) 
   0   1.0000    -161.020511     -4381.5908 
   1   1.0000     -18.834718      -512.5187 
   2   1.0000     -17.301924      -470.8093 
   3   1.0000     -14.244705      -387.6181 
   4   1.0000     -14.244705      -387.6181 
   5   1.0000     -14.235068      -387.3559 
   6   1.0000      -1.992424       -54.2166 
   7   1.0000      -1.222841       -33.2752 
   8   1.0000      -1.218361       -33.1533 
   9   1.0000      -1.218361       -33.1533 
  10   1.0000      -0.760775       -20.7017 
  11   1.0000      -0.255083        -6.9412 
  12   1.0000      -0.255083        -6.9412 
  13   1.0000      -0.247119        -6.7244 
  14   1.0000      -0.147358        -4.0098 
  15   0.0000      -0.103491        -2.8161 
  16   0.0000      -0.103490        -2.8161 
  17   0.0000      -0.078221        -2.1285 
  18   0.0000      -0.078221        -2.1285 
  19   0.0000      -0.050993        -1.3876 
  20   0.0000      -0.007879        -0.2144 
  21   0.0000      -0.007879        -0.2144 
  22   0.0000      -0.002756        -0.0750 
  23   0.0000       0.009567         0.2603 
  24   0.0000       0.018223         0.4959 
  25   0.0000       0.018237         0.4963 
  26   0.0000       0.020406         0.5553 
  27   0.0000       0.020406         0.5553 
  28   0.0000       0.024765         0.6739 
  29   0.0000       0.024765         0.6739 
  30   0.0000       0.027123         0.7380 
  31   0.0000       0.062276         1.6946 
  32   0.0000       0.073155         1.9906 
  33   0.0000       0.078565         2.1379 
  34   0.0000       0.078574         2.1381 
  35   0.0000       0.082874         2.2551 
  36   0.0000       0.082874         2.2551 
  37   0.0000       0.091871         2.4999 
  38   0.0000       0.101117         2.7515 
  39   0.0000       0.101117         2.7515 
  40   0.0000       0.108419         2.9502 
  41   0.0000       0.108419         2.9502 
  42   0.0000       0.115853         3.1525 
  43   0.0000       0.116531         3.1710 
  44   0.0000       0.116531         3.1710 
  45   0.0000       0.119411         3.2493 
  46   0.0000       0.119411         3.2493 
  47   0.0000       0.203594         5.5401 
  48   0.0000       0.251428         6.8417 
  49   0.0000       0.251428         6.8417 
  50   0.0000       0.273639         7.4461 
  51   0.0000       0.321561         8.7501 
  52   0.0000       0.321562         8.7502 
  53   0.0000       0.325552         8.8587 
  54   0.0000       0.347330         9.4513 
  55   0.0000       0.349482         9.5099 
  56   0.0000       0.349482         9.5099 
  57   0.0000       0.370500        10.0818 
  58   0.0000       0.370501        10.0818 
  59   0.0000       0.376696        10.2504 
  60   0.0000       0.383514        10.4360 
  61   0.0000       0.383515        10.4360 
  62   0.0000       0.384023        10.4498 
  63   0.0000       0.384023        10.4498 
  64   0.0000       0.386736        10.5236 
  65   0.0000       0.386736        10.5236 
  66   0.0000       0.463455        12.6112 
  67   0.0000       0.463455        12.6112 
  68   0.0000       0.475520        12.9396 
  69   0.0000       0.475520        12.9396 
  70   0.0000       0.487222        13.2580 
  71   0.0000       0.487222        13.2580 
  72   0.0000       0.541580        14.7371 
  73   0.0000       0.671887        18.2830 
  74   0.0000       0.671887        18.2830 
  75   0.0000       0.674818        18.3627 
  76   0.0000       0.783572        21.3221 
  77   0.0000       0.783572        21.3221 
  78   0.0000       0.800738        21.7892 
  79   0.0000       0.841674        22.9031 
  80   0.0000       0.841677        22.9032 
  81   0.0000       1.024791        27.8860 
  82   0.0000       1.150482        31.3062 
  83   0.0000       1.150482        31.3062 
  84   0.0000       1.286404        35.0048 
  85   0.0000       1.295544        35.2535 
  86   0.0000       1.295547        35.2536 
  87   0.0000       1.495272        40.6884 
  88   0.0000       1.495272        40.6884 
  89   0.0000       1.527701        41.5708 
  90   0.0000       1.596363        43.4393 
  91   0.0000       1.607501        43.7423 
  92   0.0000       1.607501        43.7423 
  93   0.0000       1.679783        45.7092 
  94   0.0000       1.679784        45.7093 
  95   0.0000       1.714472        46.6531 
  96   0.0000       1.714472        46.6531 
  97   0.0000       1.787898        48.6512 
  98   0.0000       1.787909        48.6515 
  99   0.0000       1.789238        48.6876 
 100   0.0000       1.789238        48.6876 
 101   0.0000       1.885676        51.3119 
 102   0.0000       1.913437        52.0673 
 103   0.0000       1.934540        52.6415 
 104   0.0000       1.934540        52.6415 
 105   0.0000       1.971401        53.6446 
 106   0.0000       1.971404        53.6446 
 107   0.0000       1.997609        54.3577 
 108   0.0000       1.997609        54.3577 
 109   0.0000       2.034738        55.3680 
 110   0.0000       2.034738        55.3680 
 111   0.0000       2.146674        58.4140 
 112   0.0000       2.146679        58.4141 
 113   0.0000       2.196166        59.7607 
 114   0.0000       2.366158        64.3864 
 115   0.0000       2.405903        65.4680 
 116   0.0000       2.405903        65.4680 
 117   0.0000       2.537915        69.0602 
 118   0.0000       2.537917        69.0602 
 119   0.0000       2.697584        73.4050 
 120   0.0000       3.192004        86.8588 
 121   0.0000       3.192004        86.8588 
 122   0.0000       3.518587        95.7456 
 123   0.0000       4.100399       111.5775 
 124   0.0000       4.100399       111.5775 
 125   0.0000       4.908844       133.5764 
 126   0.0000       6.156390       167.5239 
 127   0.0000       6.156390       167.5239 
 128   0.0000       6.263366       170.4349 
 129   0.0000       6.263529       170.4393 
 130   0.0000       6.366843       173.2506 
 131   0.0000       6.366843       173.2506 
 132   0.0000       6.497380       176.8027 
 133   0.0000       6.645917       180.8446 
 134   0.0000       6.646154       180.8510 
 135   0.0000       6.817067       185.5018 
 136   0.0000       6.817067       185.5018 
 137   0.0000       7.032720       191.3700 
 138   0.0000      11.347375       308.7778 

                 SPIN DOWN ORBITALS
  NO   OCC          E(Eh)            E(eV) 
   0   1.0000    -161.019828     -4381.5723 
   1   1.0000     -18.835743      -512.5466 
   2   1.0000     -17.300586      -470.7729 
   3   1.0000     -14.243630      -387.5889 
   4   1.0000     -14.243630      -387.5889 
   5   1.0000     -14.233548      -387.3145 
   6   1.0000      -1.987435       -54.0809 
   7   1.0000      -1.215128       -33.0653 
   8   1.0000      -1.213906       -33.0320 
   9   1.0000      -1.213906       -33.0320 
  10   1.0000      -0.762082       -20.7373 
  11   1.0000      -0.255045        -6.9401 
  12   1.0000      -0.255045        -6.9401 
  13   1.0000      -0.246586        -6.7100 
  14   0.0000      -0.115391        -3.1399 
  15   0.0000      -0.090052        -2.4504 
  16   0.0000      -0.090050        -2.4504 
  17   0.0000      -0.055069        -1.4985 
  18   0.0000      -0.055069        -1.4985 
  19   0.0000      -0.035991        -0.9794 
  20   0.0000       0.007362         0.2003 
  21   0.0000       0.007362         0.2003 
  22   0.0000       0.013113         0.3568 
  23   0.0000       0.019147         0.5210 
  24   0.0000       0.032510         0.8846 
  25   0.0000       0.032510         0.8847 
  26   0.0000       0.032887         0.8949 
  27   0.0000       0.032972         0.8972 
  28   0.0000       0.033632         0.9152 
  29   0.0000       0.033632         0.9152 
  30   0.0000       0.035515         0.9664 
  31   0.0000       0.067265         1.8304 
  32   0.0000       0.092166         2.5080 
  33   0.0000       0.092166         2.5080 
  34   0.0000       0.096253         2.6192 
  35   0.0000       0.102434         2.7874 
  36   0.0000       0.102513         2.7895 
  37   0.0000       0.110373         3.0034 
  38   0.0000       0.118400         3.2218 
  39   0.0000       0.118400         3.2218 
  40   0.0000       0.130125         3.5409 
  41   0.0000       0.132246         3.5986 
  42   0.0000       0.132291         3.5998 
  43   0.0000       0.138981         3.7819 
  44   0.0000       0.138981         3.7819 
  45   0.0000       0.144451         3.9307 
  46   0.0000       0.144452         3.9307 
  47   0.0000       0.210347         5.7238 
  48   0.0000       0.258266         7.0278 
  49   0.0000       0.258266         7.0278 
  50   0.0000       0.279375         7.6022 
  51   0.0000       0.328669         8.9435 
  52   0.0000       0.342563         9.3216 
  53   0.0000       0.342568         9.3218 
  54   0.0000       0.361077         9.8254 
  55   0.0000       0.361077         9.8254 
  56   0.0000       0.367548        10.0015 
  57   0.0000       0.377833        10.2814 
  58   0.0000       0.377878        10.2826 
  59   0.0000       0.385872        10.5001 
  60   0.0000       0.394234        10.7277 
  61   0.0000       0.394234        10.7277 
  62   0.0000       0.396831        10.7983 
  63   0.0000       0.396831        10.7983 
  64   0.0000       0.409761        11.1502 
  65   0.0000       0.410120        11.1599 
  66   0.0000       0.480263        13.0686 
  67   0.0000       0.480263        13.0686 
  68   0.0000       0.485748        13.2179 
  69   0.0000       0.485799        13.2193 
  70   0.0000       0.507087        13.7985 
  71   0.0000       0.507087        13.7985 
  72   0.0000       0.548161        14.9162 
  73   0.0000       0.676438        18.4068 
  74   0.0000       0.678382        18.4597 
  75   0.0000       0.678382        18.4597 
  76   0.0000       0.785404        21.3719 
  77   0.0000       0.785404        21.3719 
  78   0.0000       0.803081        21.8530 
  79   0.0000       0.843967        22.9655 
  80   0.0000       0.844009        22.9666 
  81   0.0000       1.027988        27.9730 
  82   0.0000       1.147740        31.2316 
  83   0.0000       1.147740        31.2316 
  84   0.0000       1.290247        35.1094 
  85   0.0000       1.301661        35.4200 
  86   0.0000       1.301678        35.4205 
  87   0.0000       1.498844        40.7856 
  88   0.0000       1.498844        40.7856 
  89   0.0000       1.532719        41.7074 
  90   0.0000       1.603237        43.6263 
  91   0.0000       1.615706        43.9656 
  92   0.0000       1.615706        43.9656 
  93   0.0000       1.681427        45.7539 
  94   0.0000       1.681434        45.7541 
  95   0.0000       1.717454        46.7343 
  96   0.0000       1.717454        46.7343 
  97   0.0000       1.793881        48.8140 
  98   0.0000       1.793881        48.8140 
  99   0.0000       1.794229        48.8234 
 100   0.0000       1.794242        48.8238 
 101   0.0000       1.888298        51.3832 
 102   0.0000       1.915261        52.1169 
 103   0.0000       1.932045        52.5736 
 104   0.0000       1.932045        52.5736 
 105   0.0000       1.972332        53.6699 
 106   0.0000       1.972347        53.6703 
 107   0.0000       2.004734        54.5516 
 108   0.0000       2.004734        54.5516 
 109   0.0000       2.036843        55.4253 
 110   0.0000       2.036843        55.4253 
 111   0.0000       2.145803        58.3903 
 112   0.0000       2.145815        58.3906 
 113   0.0000       2.193105        59.6774 
 114   0.0000       2.365841        64.3778 
 115   0.0000       2.404554        65.4312 
 116   0.0000       2.404554        65.4312 
 117   0.0000       2.536465        69.0207 
 118   0.0000       2.536473        69.0210 
 119   0.0000       2.697087        73.3915 
 120   0.0000       3.189795        86.7987 
 121   0.0000       3.189795        86.7987 
 122   0.0000       3.516348        95.6847 
 123   0.0000       4.097977       111.5116 
 124   0.0000       4.097977       111.5116 
 125   0.0000       4.905940       133.4974 
 126   0.0000       6.154295       167.4669 
 127   0.0000       6.154295       167.4669 
 128   0.0000       6.261353       170.3801 
 129   0.0000       6.261503       170.3842 
 130   0.0000       6.365234       173.2068 
 131   0.0000       6.365234       173.2068 
 132   0.0000       6.495765       176.7588 
 133   0.0000       6.642916       180.7629 
 134   0.0000       6.643147       180.7692 
 135   0.0000       6.814025       185.4190 
 136   0.0000       6.814025       185.4190 
 137   0.0000       7.029436       191.2807 
 138   0.0000      11.345270       308.7205 

                    ********************************
                    * MULLIKEN POPULATION ANALYSIS *
                    ********************************

--------------------------------------------
MULLIKEN ATOMIC CHARGES AND SPIN POPULATIONS
--------------------------------------------
   0 Sc:    0.878406    1.000185
   1 O :   -0.878406   -0.000185
Sum of atomic charges         :   -0.0000000
Sum of atomic spin populations:    1.0000000

-----------------------------------------------------
MULLIKEN REDUCED ORBITAL CHARGES AND SPIN POPULATIONS
-----------------------------------------------------
CHARGE
  0 Scs       :     6.829632  s :     6.829632
      pz      :     4.115181  p :    12.088131
      px      :     3.986475
      py      :     3.986475
      dz2     :     0.575448  d :     1.217736
      dxz     :     0.321144
      dyz     :     0.321144
      dx2y2   :     0.000000
      dxy     :     0.000000
      f0      :     0.007129  f :    -0.009002
      f+1     :    -0.008066
      f-1     :    -0.008066
      f+2     :     0.000000
      f-2     :     0.000000
      f+3     :     0.000000
      f-3     :     0.000000
      g0      :    -0.000203  g :    -0.004901
      g+1     :    -0.002349
      g-1     :    -0.002349
      g+2     :     0.000000
      g-2     :     0.000000
      g+3     :     0.000000
      g-3     :     0.000000
      g+4     :     0.000000
      g-4     :     0.000000
  1 O s       :     3.979515  s :     3.979515
      pz      :     1.485509  p :     4.850980
      px      :     1.682736
      py      :     1.682736
      dz2     :     0.006699  d :     0.041714
      dxz     :     0.017507
      dyz     :     0.017507
      dx2y2   :     0.000000
      dxy     :    -0.000000
      f0      :     0.001091  f :     0.006197
      f+1     :     0.002553
      f-1     :     0.002553
      f+2     :     0.000000
      f-2     :     0.000000
      f+3     :     0.000000
      f-3     :     0.000000

SPIN
  0 Scs       :     0.773865  s :     0.773865
      pz      :     0.127029  p :     0.127738
      px      :     0.000354
      py      :     0.000354
      dz2     :     0.079525  d :     0.102736
      dxz     :     0.011606
      dyz     :     0.011606
      dx2y2   :     0.000000
      dxy     :     0.000000
      f0      :    -0.000039  f :    -0.003313
      f+1     :    -0.001637
      f-1     :    -0.001637
      f+2     :     0.000000
      f-2     :     0.000000
      f+3     :    -0.000000
      f-3     :    -0.000000
      g0      :    -0.000004  g :    -0.000840
      g+1     :    -0.000418
      g-1     :    -0.000418
      g+2     :     0.000000
      g-2     :    -0.000000
      g+3     :    -0.000000
      g-3     :    -0.000000
      g+4     :    -0.000000
      g-4     :    -0.000000
  1 O s       :     0.028443  s :     0.028443
      pz      :    -0.010351  p :    -0.030860
      px      :    -0.010255
      py      :    -0.010255
      dz2     :     0.000977  d :     0.001736
      dxz     :     0.000379
      dyz     :     0.000379
      dx2y2   :     0.000000
      dxy     :     0.000000
      f0      :     0.000556  f :     0.000497
      f+1     :    -0.000029
      f-1     :    -0.000029
      f+2     :     0.000000
      f-2     :     0.000000
      f+3     :    -0.000000
      f-3     :    -0.000000


                     *******************************
                     * LOEWDIN POPULATION ANALYSIS *
                     *******************************

-------------------------------------------
LOEWDIN ATOMIC CHARGES AND SPIN POPULATIONS
-------------------------------------------
   0 Sc:    0.683532    0.944123
   1 O :   -0.683532    0.055877

----------------------------------------------------
LOEWDIN REDUCED ORBITAL CHARGES AND SPIN POPULATIONS
----------------------------------------------------
CHARGE
  0 Scs       :     6.433234  s :     6.433234
      pz      :     4.136081  p :    11.933461
      px      :     3.898690
      py      :     3.898690
      dz2     :     0.745897  d :     1.574011
      dxz     :     0.414057
      dyz     :     0.414057
      dx2y2   :     0.000000
      dxy     :     0.000000
      f0      :     0.120767  f :     0.245551
      f+1     :     0.062392
      f-1     :     0.062392
      f+2     :     0.000000
      f-2     :     0.000000
      f+3     :     0.000000
      f-3     :     0.000000
      g0      :     0.056606  g :     0.130212
      g+1     :     0.036803
      g-1     :     0.036803
      g+2     :     0.000000
      g-2     :     0.000000
      g+3     :     0.000000
      g-3     :     0.000000
      g+4     :     0.000000
      g-4     :     0.000000
  1 O s       :     3.559671  s :     3.559671
      pz      :     1.673977  p :     4.627065
      px      :     1.476544
      py      :     1.476544
      dz2     :     0.202597  d :     0.362411
      dxz     :     0.079907
      dyz     :     0.079907
      dx2y2   :     0.000000
      dxy     :     0.000000
      f0      :     0.071170  f :     0.134385
      f+1     :     0.031607
      f-1     :     0.031607
      f+2     :     0.000000
      f-2     :     0.000000
      f+3     :     0.000000
      f-3     :     0.000000

SPIN
  0 Scs       :     0.731802  s :     0.731802
      pz      :     0.121409  p :     0.119908
      px      :    -0.000751
      py      :    -0.000751
      dz2     :     0.075188  d :     0.097652
      dxz     :     0.011232
      dyz     :     0.011232
      dx2y2   :     0.000000
      dxy     :     0.000000
      f0      :     0.000393  f :    -0.003568
      f+1     :    -0.001980
      f-1     :    -0.001980
      f+2     :     0.000000
      f-2     :     0.000000
      f+3     :    -0.000000
      f-3     :    -0.000000
      g0      :    -0.000212  g :    -0.001670
      g+1     :    -0.000729
      g-1     :    -0.000729
      g+2     :     0.000000
      g-2     :    -0.000000
      g+3     :    -0.000000
      g-3     :    -0.000000
      g+4     :    -0.000000
      g-4     :    -0.000000
  1 O s       :     0.030225  s :     0.030225
      pz      :     0.038969  p :     0.021872
      px      :    -0.008549
      py      :    -0.008549
      dz2     :     0.000614  d :     0.001999
      dxz     :     0.000692
      dyz     :     0.000692
      dx2y2   :     0.000000
      dxy     :    -0.000000
      f0      :     0.001612  f :     0.001781
      f+1     :     0.000085
      f-1     :     0.000085
      f+2     :     0.000000
      f-2     :     0.000000
      f+3     :    -0.000000
      f-3     :    -0.000000


                      *****************************
                      * MAYER POPULATION ANALYSIS *
                      *****************************

  NA   - Mulliken gross atomic population
  ZA   - Total nuclear charge
  QA   - Mulliken gross atomic charge
  VA   - Mayer's total valence
  BVA  - Mayer's bonded valence
  FA   - Mayer's free valence

  ATOM       NA         ZA         QA         VA         BVA        FA
  0 Sc    20.1216    21.0000     0.8784     2.8904     1.9687     0.9217
  1 O      8.8784     8.0000    -0.8784     1.9712     1.9687     0.0025

  Mayer bond orders larger than 0.100000
B(  0-Sc,  1-O ) :   1.9687 

-------
TIMINGS
-------

Total SCF time: 0 days 0 hours 0 min 4 sec 

Total time                  ....       4.029 sec
Sum of individual times     ....       3.864 sec  ( 95.9%)

Fock matrix formation       ....       3.415 sec  ( 84.8%)
  Split-RI-J                ....       2.574 sec  ( 75.4% of F)
  XC integration            ....       0.695 sec  ( 20.3% of F)
    Basis function eval.    ....       0.088 sec  ( 12.7% of XC)
    Density eval.           ....       0.109 sec  ( 15.6% of XC)
    XC-Functional eval.     ....       0.024 sec  (  3.5% of XC)
    XC-Potential eval.      ....       0.295 sec  ( 42.5% of XC)
Diagonalization             ....       0.082 sec  (  2.0%)
Density matrix formation    ....       0.013 sec  (  0.3%)
Population analysis         ....       0.007 sec  (  0.2%)
Initial guess               ....       0.147 sec  (  3.6%)
Orbital Transformation      ....       0.000 sec  (  0.0%)
Orbital Orthonormalization  ....       0.000 sec  (  0.0%)
DIIS solution               ....       0.032 sec  (  0.8%)
Grid generation             ....       0.169 sec  (  4.2%)


-------------------------------------------------------------------------------
                          DFT DISPERSION CORRECTION                            
                                                                               
                              DFTD3 V3.1  Rev 1                                
                          USING Becke-Johnson damping                          
-------------------------------------------------------------------------------
The TPSS functional is recognized
Active option DFTDOPT                   ...         4   

molecular C6(AA) [au] = 688.943414 


            DFT-D V3
 parameters
 s6 scaling factor         :     1.0000 
 a1 scaling factor         :     0.4535 
 s8 scaling factor         :     1.9435 
 a2 scaling factor         :     4.4752 
 ad hoc parameters k1-k3   :    16.0000     1.3333    -4.0000 

 Edisp/kcal,au: -0.537710070053  -0.000856895449 
 E6   /kcal   :  -0.200626174 
 E8   /kcal   :  -0.337083897 
 % E8         :  62.688782542 

-------------------------   ----------------
Dispersion correction           -0.000856895
-------------------------   ----------------


-------------------------   --------------------
FINAL SINGLE POINT ENERGY      -836.021614178182
-------------------------   --------------------


                            ***************************************
                            *     ORCA property calculations      *
                            ***************************************

                                    ---------------------
                                    Active property flags
                                    ---------------------
   (+) Dipole Moment


------------------------------------------------------------------------------
                       ORCA ELECTRIC PROPERTIES CALCULATION
------------------------------------------------------------------------------

Dipole Moment Calculation                       ... on
Quadrupole Moment Calculation                   ... off
Polarizability Calculation                      ... off
GBWName                                         ... 05_ScO.gbw
Electron density file                           ... 05_ScO.scfp
The origin for moment calculation is the CENTER OF MASS  = ( 0.000000,  0.000000  1.140009)

-------------
DIPOLE MOMENT
-------------
                                X             Y             Z
Electronic contribution:      0.00000      -0.00000      -2.58853
Nuclear contribution   :      0.00000       0.00000       1.22710
                        -----------------------------------------
Total Dipole Moment    :      0.00000      -0.00000      -1.36143
                        -----------------------------------------
Magnitude (a.u.)       :      1.36143
Magnitude (Debye)      :      3.46047



--------------------
Rotational spectrum 
--------------------
 
Rotational constants in cm-1:     0.000000     0.512165     0.512165 
Rotational constants in MHz :     0.000000 15354.316375 15354.316375 

 Dipole components along the rotational axes: 
x,y,z [a.u.] :    -1.361427    -0.000000     0.000000 
x,y,z [Debye]:    -3.460473    -0.000000     0.000000 

 

Timings for individual modules:

Sum of individual times         ...        7.548 sec (=   0.126 min)
GTO integral calculation        ...        3.192 sec (=   0.053 min)  42.3 %
SCF iterations                  ...        4.356 sec (=   0.073 min)  57.7 %
                             ****ORCA TERMINATED NORMALLY****
TOTAL RUN TIME: 0 days 0 hours 0 minutes 8 seconds 130 msec
