
                                 *****************
                                 * O   R   C   A *
                                 *****************

           --- An Ab Initio, DFT and Semiempirical electronic structure package ---

                  #######################################################
                  #                        -***-                        #
                  #          Department of theory and spectroscopy      #
                  #               Directorship: Frank Neese             #
                  #        Max Planck Institute fuer Kohlenforschung    #
                  #                Kaiser Wilhelm Platz 1               #
                  #                 D-45470 Muelheim/Ruhr               #
                  #                      Germany                        #
                  #                                                     #
                  #                  All rights reserved                #
                  #                        -***-                        #
                  #######################################################


                         Program Version 4.2.0 -  RELEASE  -


 With contributions from (in alphabetic order):
   Daniel Aravena         : Magnetic Suceptibility
   Michael Atanasov       : Ab Initio Ligand Field Theory (pilot matlab implementation)
   Alexander A. Auer      : GIAO ZORA, VPT2
   Ute Becker             : Parallelization
   Giovanni Bistoni       : ED, misc. LED, open-shell LED, HFLED
   Martin Brehm           : Molecular dynamics
   Dmytro Bykov           : SCF Hessian
   Vijay G. Chilkuri      : MRCI spin determinant printing, contributions to CSF-ICE
   Dipayan Datta          : RHF DLPNO-CCSD density
   Achintya Kumar Dutta   : EOM-CC, STEOM-CC
   Dmitry Ganyushin       : Spin-Orbit,Spin-Spin,Magnetic field MRCI
   Miquel Garcia          : C-PCM Hessian, Gaussian charge scheme
   Yang Guo               : DLPNO-NEVPT2, CIM, IAO-localization
   Andreas Hansen         : Spin unrestricted coupled pair/coupled cluster methods
   Benjamin Helmich-Paris : CASSCF linear response (MC-RPA)
   Lee Huntington         : MR-EOM, pCC
   Robert Izsak           : Overlap fitted RIJCOSX, COSX-SCS-MP3, EOM
   Christian Kollmar      : KDIIS, OOCD, Brueckner-CCSD(T), CCSD density
   Simone Kossmann        : Meta GGA functionals, TD-DFT gradient, OOMP2, MP2 Hessian
   Martin Krupicka        : AUTO-CI
   Lucas Lang             : DCDCAS
   Dagmar Lenk            : GEPOL surface, SMD
   Dimitrios Liakos       : Extrapolation schemes; Compound Job, initial MDCI parallelization
   Dimitrios Manganas     : Further ROCIS development; embedding schemes
   Dimitrios Pantazis     : SARC Basis sets
   Taras Petrenko         : DFT Hessian,TD-DFT gradient, ASA, ECA, R-Raman, ABS, FL, XAS/XES, NRVS
   Peter Pinski           : DLPNO-MP2, DLPNO-MP2 Gradient
   Christoph Reimann      : Effective Core Potentials
   Marius Retegan         : Local ZFS, SOC
   Christoph Riplinger    : Optimizer, TS searches, QM/MM, DLPNO-CCSD(T), (RO)-DLPNO pert. Triples
   Tobias Risthaus        : Range-separated hybrids, TD-DFT gradient, RPA, STAB
   Michael Roemelt        : Original ROCIS implementation
   Masaaki Saitow         : Open-shell DLPNO-CCSD energy and density
   Barbara Sandhoefer     : DKH picture change effects
   Avijit Sen             : IP-ROCIS
   Kantharuban Sivalingam : CASSCF convergence, NEVPT2, FIC-MRCI
   Bernardo de Souza      : ESD, SOC TD-DFT
   Georgi Stoychev        : AutoAux, RI-MP2 NMR
   Willem Van den Heuvel  : Paramagnetic NMR
   Boris Wezisla          : Elementary symmetry handling
   Frank Wennmohs         : Technical directorship


 We gratefully acknowledge several colleagues who have allowed us to
 interface, adapt or use parts of their codes:
   Stefan Grimme, W. Hujo, H. Kruse,             : VdW corrections, initial TS optimization,
                  C. Bannwarth                     DFT functionals, gCP, sTDA/sTD-DF
   Ed Valeev, F. Pavosevic, A. Kumar             : LibInt (2-el integral package), F12 methods
   Garnet Chan, S. Sharma, J. Yang, R. Olivares  : DMRG
   Ulf Ekstrom                                   : XCFun DFT Library
   Mihaly Kallay                                 : mrcc  (arbitrary order and MRCC methods)
   Andreas Klamt, Michael Diedenhofen            : otool_cosmo (COSMO solvation model)
   Jiri Pittner, Ondrej Demel                    : Mk-CCSD
   Frank Weinhold                                : gennbo (NPA and NBO analysis)
   Christopher J. Cramer and Donald G. Truhlar   : smd solvation model
   Lars Goerigk                                  : TD-DFT with DH, B97 family of functionals
   V. Asgeirsson, H. Jonsson                     : NEB implementation
   FAccTs GmbH                                   : IRC, NEB, NEB-TS, Multilevel, MM, QM/MM, CI optimization
   S Lehtola, MJT Oliveira, MAL Marques          : LibXC Library


 Your calculation uses the libint2 library for the computation of 2-el integrals
 For citations please refer to: http://libint.valeyev.net

 Your ORCA version has been built with support for libXC version: 4.2.3
 For citations please refer to: https://tddft.org/programs/libxc/

 This ORCA versions uses:
   CBLAS   interface :  Fast vector & matrix operations
   LAPACKE interface :  Fast linear algebra routines
   SCALAPACK package :  Parallel linear algebra routines


Your calculation utilizes the atom-pairwise dispersion correction
with the Becke-Johnson damping scheme (D3BJ)
Cite in your paper:
S.Grimme, S.Ehrlich, L.Goerigk, J Comput Chem, (2011), 32, 1456–1465 
S.Grimme, J.Antony, S.Ehrlich and H.Krieg, J.Chem.Phys., 132, (2010), 154104 
   

----- Orbital basis set information -----
Your calculation utilizes the basis: aug-cc-pVTZ 
    H, B-Ne : Obtained from the ccRepo (grant-hill.group.shef.ac.uk/ccrepo) Feb. 2017
              R. A. Kendall, T. H. Dunning, Jr., R. J. Harrison, J. Chem. Phys. 96, 6796 (1992)
         He : Obtained from the ccRepo (grant-hill.group.shef.ac.uk/ccrepo) Feb. 2017
              D. E. Woon, T. H. Dunning, Jr., J. Chem. Phys. 100, 2975 (1994)
  Li-Be, Na : Obtained from the ccRepo (grant-hill.group.shef.ac.uk/ccrepo) Feb. 2017
              B. P. Prascher, D. E. Woon, K. A. Peterson, T. H. Dunning, Jr., A. K. Wilson, Theor. Chem. Acc. 128, 69 (2011)
         Mg : Obtained from the Peterson Research Group Website (tyr0.chem.wsu.edu/~kipeters) Feb. 2017
              B. P. Prascher, D. E. Woon, K. A. Peterson, T. H. Dunning, Jr., A. K. Wilson, Theor. Chem. Acc. 128, 69 (2011)
      Al-Ar : Obtained from the ccRepo (grant-hill.group.shef.ac.uk/ccrepo) Feb. 2017
              D. E. Woon, T. H. Dunning, Jr., J. Chem. Phys. 98, 1358 (1993)
      Sc-Zn : Obtained from the ccRepo (grant-hill.group.shef.ac.uk/ccrepo) Feb. 2017
              N. B. Balabanov, K. A. Peterson, J. Chem. Phys. 123, 064107 (2005)
              N. B. Balabanov, K. A. Peterson, J. Chem. Phys. 125, 074110 (2006)
      Ga-Kr : Obtained from the ccRepo (grant-hill.group.shef.ac.uk/ccrepo) Feb. 2017
              A. K. Wilson, D. E. Woon, K. A. Peterson, T. H. Dunning, Jr., J. Chem. Phys. 110, 7667 (1999)
     Ag, Au : Obtained from the Peterson Research Group Website (tyr0.chem.wsu.edu/~kipeters) Feb. 2017
              K. A. Peterson, C. Puzzarini, Theor. Chem. Acc. 114, 283 (2005)

----- AuxJ basis set information -----
Your calculation utilizes the auxiliary basis: def2/J
   F. Weigend, Phys. Chem. Chem. Phys. 8, 1057 (2006).

================================================================================
                                        WARNINGS
                       Please study these warnings very carefully!
================================================================================


WARNING: your system is open-shell and RHF/RKS was chosen
  ===> : WILL SWITCH to UHF/UKS


INFO   : the flag for use of LIBINT has been found!

================================================================================
                                       INPUT FILE
================================================================================
NAME = 07_TiH.in
|  1> #
|  2> # 07_TiH tpss/aug-cc-pvtz
|  3> #
|  4> ! tpss d3bj aug-cc-pvtz def2/j grid4 nofinalgrid
|  5> 
|  6> *xyz 0 4
|  7>   Ti  0.00000000000000      0.00000000000000      0.11662089429905
|  8>   H   0.00000000000000      0.00000000000000      1.88337910570095
|  9> *
| 10> 
| 11> %pal
| 12> nprocs 24
| 13> end
| 14> 
| 15> 
| 16>                          ****END OF INPUT****
================================================================================

                       ****************************
                       * Single Point Calculation *
                       ****************************

---------------------------------
CARTESIAN COORDINATES (ANGSTROEM)
---------------------------------
  Ti     0.000000    0.000000    0.116621
  H      0.000000    0.000000    1.883379

----------------------------
CARTESIAN COORDINATES (A.U.)
----------------------------
  NO LB      ZA    FRAG     MASS         X           Y           Z
   0 Ti   22.0000    0    47.900    0.000000    0.000000    0.220382
   1 H     1.0000    0     1.008    0.000000    0.000000    3.559071

--------------------------------
INTERNAL COORDINATES (ANGSTROEM)
--------------------------------
 Ti     0   0   0     0.000000000000     0.00000000     0.00000000
 H      1   0   0     1.766758211402     0.00000000     0.00000000

---------------------------
INTERNAL COORDINATES (A.U.)
---------------------------
 Ti     0   0   0     0.000000000000     0.00000000     0.00000000
 H      1   0   0     3.338689164406     0.00000000     0.00000000

---------------------
BASIS SET INFORMATION
---------------------
There are 2 groups of distinct atoms

 Group   1 Type Ti  : 116s77p23d3f2g contracted to 8s7p5d3f2g pattern {19191919191911/151515151511/77711/111/11}
 Group   2 Type H   : 6s3p2d contracted to 4s3p2d pattern {3111/111/11}

Atom   0Ti   basis set group =>   1
Atom   1H    basis set group =>   2
---------------------------------
AUXILIARY/J BASIS SET INFORMATION
---------------------------------
There are 2 groups of distinct atoms

 Group   1 Type Ti  : 19s5p5d3f3g contracted to 8s5p5d2f3g pattern {121111111/11111/11111/21/111}
 Group   2 Type H   : 5s2p1d contracted to 3s1p1d pattern {311/2/1}

Atom   0Ti   basis set group =>   1
Atom   1H    basis set group =>   2


           ************************************************************
           *        Program running with 24 parallel MPI-processes    *
           *              working on a common directory               *
           ************************************************************
------------------------------------------------------------------------------
                           ORCA GTO INTEGRAL CALCULATION
                           -- RI-GTO INTEGRALS CHOSEN --
------------------------------------------------------------------------------

                         BASIS SET STATISTICS AND STARTUP INFO

Gaussian basis set:
 # of primitive gaussian shells          ...  232
 # of primitive gaussian functions       ...  526
 # of contracted shells                  ...   34
 # of contracted basis functions         ...  116
 Highest angular momentum                ...    4
 Maximum contraction depth               ...   19
Auxiliary gaussian basis set:
 # of primitive gaussian shells          ...   43
 # of primitive gaussian functions       ...  123
 # of contracted shells                  ...   28
 # of contracted aux-basis functions     ...  100
 Highest angular momentum                ...    4
 Maximum contraction depth               ...   12
Ratio of auxiliary to basis functions    ...  0.86
Integral package used                  ... LIBINT
 One Electron integrals                  ... done
 Ordering auxiliary basis shells         ... done
 Integral threshhold             Thresh  ...  1.000e-10
 Primitive cut-off               TCut    ...  1.000e-11
 Pre-screening matrix                    ... done
 Shell pair data                         ... 
 Ordering of the shell pairs             ... done (   0.000 sec) 595 of 595 pairs
 Determination of significant pairs      ... done (   0.000 sec)
 Creation of shell pair data             ... done (   0.001 sec)
 Storage of shell pair data              ... done (   0.067 sec)
 Shell pair data done in (   0.068 sec)
 Computing two index integrals           ... done
 Cholesky decomposition of the V-matrix  ... done


Timings:
 Total evaluation time                   ...   2.638 sec (  0.044 min)
 One electron matrix time                ...   0.041 sec (  0.001 min) =  1.5%
 Schwartz matrix evaluation time         ...   2.501 sec (  0.042 min) = 94.8%
 Two index repulsion integral time       ...   0.001 sec (  0.000 min) =  0.1%
 Cholesky decomposition of V             ...   0.001 sec (  0.000 min) =  0.0%
 Three index repulsion integral time     ...   0.000 sec (  0.000 min) =  0.0%



           ************************************************************
           *        Program running with 24 parallel MPI-processes    *
           *              working on a common directory               *
           ************************************************************
-------------------------------------------------------------------------------
                                 ORCA SCF
-------------------------------------------------------------------------------

------------
SCF SETTINGS
------------
Hamiltonian:
 Density Functional     Method          .... DFT(GTOs)
 Exchange Functional    Exchange        .... TPSS
 Correlation Functional Correlation     .... TPSS
 LDA part of GGA corr.  LDAOpt          .... PW91-LDA
 Gradients option       PostSCFGGA      .... off
   Density functional embedding theory  .... OFF
   NL short-range parameter             ....  5.000000
 RI-approximation to the Coulomb term is turned on
   Number of auxiliary basis functions  .... 100


General Settings:
 Integral files         IntName         .... 07_TiH
 Hartree-Fock type      HFTyp           .... UHF
 Total Charge           Charge          ....    0
 Multiplicity           Mult            ....    4
 Number of Electrons    NEL             ....   23
 Basis Dimension        Dim             ....  116
 Nuclear Repulsion      ENuc            ....      6.5894124660 Eh

Convergence Acceleration:
 DIIS                   CNVDIIS         .... on
   Start iteration      DIISMaxIt       ....    12
   Startup error        DIISStart       ....  0.200000
   # of expansion vecs  DIISMaxEq       ....     5
   Bias factor          DIISBfac        ....   1.050
   Max. coefficient     DIISMaxC        ....  10.000
 Newton-Raphson         CNVNR           .... off
 SOSCF                  CNVSOSCF        .... off
 Level Shifting         CNVShift        .... on
   Level shift para.    LevelShift      ....    0.2500
   Turn off err/grad.   ShiftErr        ....    0.0010
 Zerner damping         CNVZerner       .... off
 Static damping         CNVDamp         .... on
   Fraction old density DampFac         ....    0.7000
   Max. Damping (<1)    DampMax         ....    0.9800
   Min. Damping (>=0)   DampMin         ....    0.0000
   Turn off err/grad.   DampErr         ....    0.1000
 Fernandez-Rico         CNVRico         .... off

SCF Procedure:
 Maximum # iterations   MaxIter         ....   125
 SCF integral mode      SCFMode         .... Direct
   Integral package                     .... LIBINT
 Reset frequency        DirectResetFreq ....    20
 Integral Threshold     Thresh          ....  1.000e-10 Eh
 Primitive CutOff       TCut            ....  1.000e-11 Eh

Convergence Tolerance:
 Convergence Check Mode ConvCheckMode   .... Total+1el-Energy
 Convergence forced     ConvForced      .... 0
 Energy Change          TolE            ....  1.000e-06 Eh
 1-El. energy change                    ....  1.000e-03 Eh
 DIIS Error             TolErr          ....  1.000e-06


Diagonalization of the overlap matrix:
Smallest eigenvalue                        ... 6.629e-05
Time for diagonalization                   ...    0.004 sec
Threshold for overlap eigenvalues          ... 1.000e-08
Number of eigenvalues below threshold      ... 0
Time for construction of square roots      ...    0.002 sec
Total time needed                          ...    0.006 sec

-------------------
DFT GRID GENERATION
-------------------

General Integration Accuracy     IntAcc      ...  4.670
Radial Grid Type                 RadialGrid  ... Gauss-Chebyshev
Angular Grid (max. acc.)         AngularGrid ... Lebedev-302
Angular grid pruning method      GridPruning ... 3 (G Style)
Weight generation scheme         WeightScheme... Becke
Basis function cutoff            BFCut       ...    1.0000e-10
Integration weight cutoff        WCut        ...    1.0000e-14
Grids for H and He will be reduced by one unit

# of grid points (after initial pruning)     ...  13058 (   0.0 sec)
# of grid points (after weights+screening)   ...  13024 (   0.0 sec)
nearest neighbour list constructed           ...    0.0 sec
Grid point re-assignment to atoms done       ...    0.0 sec
Grid point division into batches done        ...    0.1 sec
Reduced shell lists constructed in    0.1 sec

Total number of grid points                  ...    13024
Total number of batches                      ...      204
Average number of points per batch           ...       63
Average number of grid points per atom       ...     6512
Average number of shells per batch           ...    19.60 (57.65%)
Average number of basis functions per batch  ...    55.00 (47.41%)
Average number of large shells per batch     ...    12.00 (61.22%)
Average number of large basis fcns per batch ...    33.00 (60.00%)
Maximum spatial batch extension              ...  31.41, 28.57, 18.88 au
Average spatial batch extension              ...   1.02,  0.93,  0.73 au

Time for grid setup =    0.145 sec

------------------------------
INITIAL GUESS: MODEL POTENTIAL
------------------------------
Loading Hartree-Fock densities                     ... done
Calculating cut-offs                               ... done
Setting up the integral package                    ... done
Initializing the effective Hamiltonian             ... done
Starting the Coulomb interaction                   ... done (   0.0 sec)
Reading the grid                                   ... done
Mapping shells                                     ... done
Starting the XC term evaluation                    ... done (   0.0 sec)
  promolecular density results
     # of electrons  =     22.999521348
     EX              =    -41.096787751
     EC              =     -0.910606312
     EX+EC           =    -42.007394064
Transforming the Hamiltonian                       ... done (   0.0 sec)
Diagonalizing the Hamiltonian                      ... done (   0.0 sec)
Back transforming the eigenvectors                 ... done (   0.0 sec)
Now organizing SCF variables                       ... done
                      ------------------
                      INITIAL GUESS DONE (   0.3 sec)
                      ------------------
--------------
SCF ITERATIONS
--------------
ITER       Energy         Delta-E        Max-DP      RMS-DP      [F,P]     Damp
               ***  Starting incremental Fock matrix formation  ***
  0   -849.8993140975   0.000000000000 0.12028527  0.00277553  0.1383443 0.7000
  1   -849.9289527119  -0.029638614408 0.04368546  0.00115873  0.0923882 0.7000
                               ***Turning on DIIS***
  2   -849.9454992926  -0.016546580677 0.12423430  0.00178468  0.0505258 0.0000
  3   -849.9660836763  -0.020584383718 0.06461815  0.00169526  0.0408408 0.0000
  4   -849.9742251470  -0.008141470696 0.05257458  0.00132864  0.0210156 0.0000
  5   -849.9757849077  -0.001559760678 0.02324849  0.00056162  0.0115107 0.0000
  6   -849.9766402295  -0.000855321831 0.01587395  0.00021937  0.0042600 0.0000
  7   -849.9769242992  -0.000284069699 0.01235213  0.00013245  0.0028533 0.0000
  8   -849.9770528783  -0.000128579050 0.01107796  0.00012250  0.0022057 0.0000
  9   -849.9771267469  -0.000073868579 0.00963442  0.00010745  0.0017709 0.0000
 10   -849.9771690717  -0.000042324864 0.00578270  0.00006804  0.0013831 0.0000
 11   -849.9771943560  -0.000025284226 0.00643496  0.00008615  0.0010774 0.0000
 12   -849.9772095558  -0.000015199836 0.01175303  0.00013826  0.0008234 0.0000
 13   -849.9772310599  -0.000021504086 0.00208712  0.00003111  0.0007999 0.0000
 14   -849.9772330373  -0.000001977433 0.00156662  0.00001793  0.0000670 0.0000
                 **** Energy Check signals convergence ****

               *****************************************************
               *                     SUCCESS                       *
               *           SCF CONVERGED AFTER  15 CYCLES          *
               *****************************************************


----------------
TOTAL SCF ENERGY
----------------

Total Energy       :         -849.97723321 Eh          -23129.05637 eV

Components:
Nuclear Repulsion  :            6.58941247 Eh             179.30703 eV
Electronic Energy  :         -856.56664567 Eh          -23308.36340 eV
One Electron Energy:        -1177.83978861 Eh          -32050.65007 eV
Two Electron Energy:          321.27314294 Eh            8742.28667 eV

Virial components:
Potential Energy   :        -1698.57172272 Eh          -46220.48638 eV
Kinetic Energy     :          848.59448951 Eh           23091.43001 eV
Virial Ratio       :            2.00162945


DFT components:
N(Alpha)           :       12.999996756883 electrons
N(Beta)            :        9.999998667736 electrons
N(Total)           :       22.999995424620 electrons
E(X)               :      -41.554657024199 Eh       
E(C)               :       -0.908490747446 Eh       
E(XC)              :      -42.463147771645 Eh       
DFET-embed. en.    :        0.000000000000 Eh       

---------------
SCF CONVERGENCE
---------------

  Last Energy change         ...   -1.6926e-07  Tolerance :   1.0000e-06
  Last MAX-Density change    ...    4.5759e-04  Tolerance :   1.0000e-05
  Last RMS-Density change    ...    5.2351e-06  Tolerance :   1.0000e-06
  Last DIIS Error            ...    3.4926e-05  Tolerance :   1.0000e-06

             **** THE GBW FILE WAS UPDATED (07_TiH.gbw) ****
             **** DENSITY FILE WAS UPDATED (07_TiH.scfp) ****
             **** ENERGY FILE WAS UPDATED (07_TiH.en.tmp) ****
----------------------
UHF SPIN CONTAMINATION
----------------------

Warning: in a DFT calculation there is little theoretical justification to 
         calculate <S**2> as in Hartree-Fock theory. We will do it anyways
         but you should keep in mind that the values have only limited relevance

Expectation value of <S**2>     :     3.753323
Ideal value S*(S+1) for S=1.5   :     3.750000
Deviation                       :     0.003323

             **** THE GBW FILE WAS UPDATED (07_TiH.gbw) ****
             **** DENSITY FILE WAS UPDATED (07_TiH.scfp) ****
----------------
ORBITAL ENERGIES
----------------
                 SPIN UP ORBITALS
  NO   OCC          E(Eh)            E(eV) 
   0   1.0000    -178.138135     -4847.3851 
   1   1.0000     -19.537889      -531.6530 
   2   1.0000     -16.271587      -442.7724 
   3   1.0000     -16.271587      -442.7724 
   4   1.0000     -16.254121      -442.2971 
   5   1.0000      -2.263033       -61.5803 
   6   1.0000      -1.410096       -38.3707 
   7   1.0000      -1.410096       -38.3707 
   8   1.0000      -1.388598       -37.7857 
   9   1.0000      -0.236211        -6.4276 
  10   1.0000      -0.149187        -4.0596 
  11   1.0000      -0.149187        -4.0596 
  12   1.0000      -0.144530        -3.9329 
  13   0.0000      -0.139479        -3.7954 
  14   0.0000      -0.139479        -3.7954 
  15   0.0000      -0.074466        -2.0263 
  16   0.0000      -0.055603        -1.5130 
  17   0.0000      -0.055603        -1.5130 
  18   0.0000      -0.002023        -0.0551 
  19   0.0000       0.012201         0.3320 
  20   0.0000       0.016960         0.4615 
  21   0.0000       0.016960         0.4615 
  22   0.0000       0.025263         0.6875 
  23   0.0000       0.025264         0.6875 
  24   0.0000       0.027332         0.7438 
  25   0.0000       0.029387         0.7997 
  26   0.0000       0.029387         0.7997 
  27   0.0000       0.069244         1.8842 
  28   0.0000       0.082100         2.2341 
  29   0.0000       0.090155         2.4532 
  30   0.0000       0.114960         3.1282 
  31   0.0000       0.114960         3.1282 
  32   0.0000       0.117354         3.1934 
  33   0.0000       0.117354         3.1934 
  34   0.0000       0.118167         3.2155 
  35   0.0000       0.118167         3.2155 
  36   0.0000       0.148570         4.0428 
  37   0.0000       0.205816         5.6005 
  38   0.0000       0.222362         6.0508 
  39   0.0000       0.222362         6.0508 
  40   0.0000       0.225966         6.1488 
  41   0.0000       0.225966         6.1488 
  42   0.0000       0.229070         6.2333 
  43   0.0000       0.229074         6.2334 
  44   0.0000       0.299995         8.1633 
  45   0.0000       0.324705         8.8357 
  46   0.0000       0.324705         8.8357 
  47   0.0000       0.331384         9.0174 
  48   0.0000       0.368399        10.0247 
  49   0.0000       0.485357        13.2072 
  50   0.0000       0.485358        13.2073 
  51   0.0000       0.492175        13.3928 
  52   0.0000       0.492175        13.3928 
  53   0.0000       0.527262        14.3475 
  54   0.0000       0.527262        14.3475 
  55   0.0000       0.552388        15.0312 
  56   0.0000       0.608506        16.5583 
  57   0.0000       0.772236        21.0136 
  58   0.0000       0.772240        21.0137 
  59   0.0000       0.786714        21.4076 
  60   0.0000       0.816151        22.2086 
  61   0.0000       0.816151        22.2086 
  62   0.0000       0.862486        23.4694 
  63   0.0000       0.862486        23.4694 
  64   0.0000       0.865988        23.5647 
  65   0.0000       0.865988        23.5647 
  66   0.0000       0.866306        23.5734 
  67   0.0000       0.866325        23.5739 
  68   0.0000       0.889406        24.2020 
  69   0.0000       0.889406        24.2020 
  70   0.0000       0.890268        24.2254 
  71   0.0000       0.890268        24.2254 
  72   0.0000       0.908845        24.7309 
  73   0.0000       1.030139        28.0315 
  74   0.0000       1.092994        29.7419 
  75   0.0000       1.092994        29.7419 
  76   0.0000       1.116635        30.3852 
  77   0.0000       1.116637        30.3852 
  78   0.0000       1.317925        35.8626 
  79   0.0000       1.599998        43.5382 
  80   0.0000       1.599998        43.5382 
  81   0.0000       1.788330        48.6629 
  82   0.0000       1.831074        49.8261 
  83   0.0000       1.831074        49.8261 
  84   0.0000       1.846753        50.2527 
  85   0.0000       2.032002        55.2936 
  86   0.0000       2.032010        55.2938 
  87   0.0000       2.060958        56.0815 
  88   0.0000       2.060958        56.0815 
  89   0.0000       2.110289        57.4239 
  90   0.0000       2.357792        64.1588 
  91   0.0000       3.088801        84.0506 
  92   0.0000       3.130632        85.1888 
  93   0.0000       3.130632        85.1888 
  94   0.0000       3.174394        86.3796 
  95   0.0000       3.174394        86.3796 
  96   0.0000       3.181282        86.5671 
  97   0.0000       3.181303        86.5677 
  98   0.0000       3.193722        86.9056 
  99   0.0000       3.193728        86.9058 
 100   0.0000       3.264482        88.8311 
 101   0.0000       3.350497        91.1717 
 102   0.0000       3.350497        91.1717 
 103   0.0000       3.368854        91.6712 
 104   0.0000       3.368889        91.6721 
 105   0.0000       3.504691        95.3675 
 106   0.0000       3.504691        95.3675 
 107   0.0000       3.705568       100.8336 
 108   0.0000       3.820571       103.9630 
 109   0.0000       3.820659       103.9654 
 110   0.0000       4.095724       111.4503 
 111   0.0000       4.095724       111.4503 
 112   0.0000       4.328325       117.7797 
 113   0.0000       4.328325       117.7797 
 114   0.0000       4.559003       124.0568 
 115   0.0000       5.085785       138.3912 

                 SPIN DOWN ORBITALS
  NO   OCC          E(Eh)            E(eV) 
   0   1.0000    -178.137473     -4847.3671 
   1   1.0000     -19.517734      -531.1045 
   2   1.0000     -16.258093      -442.4052 
   3   1.0000     -16.258093      -442.4052 
   4   1.0000     -16.232025      -441.6959 
   5   1.0000      -2.197599       -59.7997 
   6   1.0000      -1.357414       -36.9371 
   7   1.0000      -1.357414       -36.9371 
   8   1.0000      -1.289630       -35.0926 
   9   1.0000      -0.221641        -6.0312 
  10   0.0000      -0.106282        -2.8921 
  11   0.0000      -0.096078        -2.6144 
  12   0.0000      -0.096078        -2.6144 
  13   0.0000      -0.054133        -1.4730 
  14   0.0000      -0.054133        -1.4730 
  15   0.0000      -0.045081        -1.2267 
  16   0.0000      -0.029774        -0.8102 
  17   0.0000      -0.029774        -0.8102 
  18   0.0000       0.012150         0.3306 
  19   0.0000       0.022222         0.6047 
  20   0.0000       0.028962         0.7881 
  21   0.0000       0.028962         0.7881 
  22   0.0000       0.039051         1.0626 
  23   0.0000       0.040655         1.1063 
  24   0.0000       0.040658         1.1064 
  25   0.0000       0.041307         1.1240 
  26   0.0000       0.041307         1.1240 
  27   0.0000       0.073842         2.0093 
  28   0.0000       0.099301         2.7021 
  29   0.0000       0.107962         2.9378 
  30   0.0000       0.132127         3.5953 
  31   0.0000       0.132128         3.5954 
  32   0.0000       0.133073         3.6211 
  33   0.0000       0.133073         3.6211 
  34   0.0000       0.139687         3.8011 
  35   0.0000       0.139687         3.8011 
  36   0.0000       0.158260         4.3065 
  37   0.0000       0.223224         6.0742 
  38   0.0000       0.234788         6.3889 
  39   0.0000       0.234788         6.3889 
  40   0.0000       0.236946         6.4476 
  41   0.0000       0.236947         6.4477 
  42   0.0000       0.242044         6.5864 
  43   0.0000       0.242044         6.5864 
  44   0.0000       0.311924         8.4879 
  45   0.0000       0.339253         9.2315 
  46   0.0000       0.339253         9.2315 
  47   0.0000       0.340044         9.2531 
  48   0.0000       0.395038        10.7495 
  49   0.0000       0.515188        14.0190 
  50   0.0000       0.515190        14.0190 
  51   0.0000       0.519512        14.1366 
  52   0.0000       0.519512        14.1366 
  53   0.0000       0.567739        15.4490 
  54   0.0000       0.567739        15.4490 
  55   0.0000       0.569902        15.5078 
  56   0.0000       0.638793        17.3824 
  57   0.0000       0.783038        21.3076 
  58   0.0000       0.783039        21.3076 
  59   0.0000       0.798659        21.7326 
  60   0.0000       0.836748        22.7691 
  61   0.0000       0.836748        22.7691 
  62   0.0000       0.875917        23.8349 
  63   0.0000       0.875917        23.8349 
  64   0.0000       0.881995        24.0003 
  65   0.0000       0.882018        24.0009 
  66   0.0000       0.907813        24.7028 
  67   0.0000       0.907813        24.7028 
  68   0.0000       0.909860        24.7585 
  69   0.0000       0.909862        24.7586 
  70   0.0000       0.916633        24.9428 
  71   0.0000       0.919735        25.0273 
  72   0.0000       0.919735        25.0273 
  73   0.0000       1.038685        28.2640 
  74   0.0000       1.098169        29.8827 
  75   0.0000       1.098169        29.8827 
  76   0.0000       1.137350        30.9489 
  77   0.0000       1.137361        30.9492 
  78   0.0000       1.341558        36.5056 
  79   0.0000       1.628755        44.3207 
  80   0.0000       1.628755        44.3207 
  81   0.0000       1.809535        49.2400 
  82   0.0000       1.865279        50.7568 
  83   0.0000       1.865280        50.7568 
  84   0.0000       1.903331        51.7923 
  85   0.0000       2.068432        56.2849 
  86   0.0000       2.068436        56.2850 
  87   0.0000       2.137097        58.1534 
  88   0.0000       2.137097        58.1534 
  89   0.0000       2.146494        58.4091 
  90   0.0000       2.404216        65.4220 
  91   0.0000       3.116284        84.7984 
  92   0.0000       3.174306        86.3773 
  93   0.0000       3.174306        86.3773 
  94   0.0000       3.203196        87.1634 
  95   0.0000       3.203202        87.1636 
  96   0.0000       3.235883        88.0529 
  97   0.0000       3.235883        88.0529 
  98   0.0000       3.248725        88.4023 
  99   0.0000       3.248754        88.4031 
 100   0.0000       3.302878        89.8759 
 101   0.0000       3.383390        92.0667 
 102   0.0000       3.383390        92.0667 
 103   0.0000       3.458164        94.1014 
 104   0.0000       3.458180        94.1019 
 105   0.0000       3.569855        97.1407 
 106   0.0000       3.569855        97.1407 
 107   0.0000       3.753609       102.1409 
 108   0.0000       3.837180       104.4150 
 109   0.0000       3.837233       104.4164 
 110   0.0000       4.140877       112.6790 
 111   0.0000       4.140877       112.6790 
 112   0.0000       4.350659       118.3875 
 113   0.0000       4.350659       118.3875 
 114   0.0000       4.615813       125.6026 
 115   0.0000       5.121913       139.3743 

                    ********************************
                    * MULLIKEN POPULATION ANALYSIS *
                    ********************************

--------------------------------------------
MULLIKEN ATOMIC CHARGES AND SPIN POPULATIONS
--------------------------------------------
   0 Ti:    0.123505    3.072487
   1 H :   -0.123505   -0.072487
Sum of atomic charges         :    0.0000000
Sum of atomic spin populations:    3.0000000

-----------------------------------------------------
MULLIKEN REDUCED ORBITAL CHARGES AND SPIN POPULATIONS
-----------------------------------------------------
CHARGE
  0 Tis       :     7.113893  s :     7.113893
      pz      :     4.226959  p :    12.249144
      px      :     4.011093
      py      :     4.011093
      dz2     :     0.535093  d :     2.504271
      dxz     :     0.984589
      dyz     :     0.984589
      dx2y2   :     0.000000
      dxy     :     0.000000
      f0      :     0.008852  f :     0.009175
      f+1     :     0.000162
      f-1     :     0.000162
      f+2     :     0.000000
      f-2     :     0.000000
      f+3     :     0.000000
      f-3     :     0.000000
      g0      :    -0.000019  g :     0.000012
      g+1     :     0.000015
      g-1     :     0.000015
      g+2     :     0.000000
      g-2     :     0.000000
      g+3     :     0.000000
      g-3     :     0.000000
      g+4     :     0.000000
      g-4     :     0.000000
  1 H s       :     1.111092  s :     1.111092
      pz      :     0.002455  p :     0.010638
      px      :     0.004092
      py      :     0.004092
      dz2     :     0.001675  d :     0.001775
      dxz     :     0.000050
      dyz     :     0.000050
      dx2y2   :     0.000000
      dxy     :     0.000000

SPIN
  0 Tis       :     0.688891  s :     0.688891
      pz      :     0.122203  p :     0.145840
      px      :     0.011819
      py      :     0.011819
      dz2     :     0.270517  d :     2.239636
      dxz     :     0.984560
      dyz     :     0.984560
      dx2y2   :     0.000000
      dxy     :     0.000000
      f0      :    -0.001594  f :    -0.001746
      f+1     :    -0.000076
      f-1     :    -0.000076
      f+2     :     0.000000
      f-2     :     0.000000
      f+3     :     0.000000
      f-3     :     0.000000
      g0      :    -0.000164  g :    -0.000135
      g+1     :     0.000015
      g-1     :     0.000015
      g+2     :     0.000000
      g-2     :     0.000000
      g+3     :     0.000000
      g-3     :     0.000000
      g+4     :     0.000000
      g-4     :     0.000000
  1 H s       :    -0.082658  s :    -0.082658
      pz      :     0.003032  p :     0.010634
      px      :     0.003801
      py      :     0.003801
      dz2     :    -0.000226  d :    -0.000463
      dxz     :    -0.000118
      dyz     :    -0.000118
      dx2y2   :     0.000000
      dxy     :     0.000000


                     *******************************
                     * LOEWDIN POPULATION ANALYSIS *
                     *******************************

-------------------------------------------
LOEWDIN ATOMIC CHARGES AND SPIN POPULATIONS
-------------------------------------------
   0 Ti:    0.734704    2.785696
   1 H :   -0.734704    0.214304

----------------------------------------------------
LOEWDIN REDUCED ORBITAL CHARGES AND SPIN POPULATIONS
----------------------------------------------------
CHARGE
  0 Tis       :     6.733141  s :     6.733141
      pz      :     4.173668  p :    12.103332
      px      :     3.964832
      py      :     3.964832
      dz2     :     0.560777  d :     2.380941
      dxz     :     0.910082
      dyz     :     0.910082
      dx2y2   :     0.000000
      dxy     :     0.000000
      f0      :     0.030850  f :     0.037451
      f+1     :     0.003300
      f-1     :     0.003300
      f+2     :     0.000000
      f-2     :     0.000000
      f+3     :     0.000000
      f-3     :     0.000000
      g0      :     0.009170  g :     0.010430
      g+1     :     0.000630
      g-1     :     0.000630
      g+2     :     0.000000
      g-2     :     0.000000
      g+3     :     0.000000
      g-3     :     0.000000
      g+4     :     0.000000
      g-4     :     0.000000
  1 H s       :     1.137419  s :     1.137419
      pz      :     0.221837  p :     0.341669
      px      :     0.059916
      py      :     0.059916
      dz2     :     0.133137  d :     0.255615
      dxz     :     0.061239
      dyz     :     0.061239
      dx2y2   :     0.000000
      dxy     :     0.000000

SPIN
  0 Tis       :     0.542402  s :     0.542402
      pz      :     0.126813  p :     0.172074
      px      :     0.022630
      py      :     0.022630
      dz2     :     0.254477  d :     2.068492
      dxz     :     0.907007
      dyz     :     0.907007
      dx2y2   :     0.000000
      dxy     :     0.000000
      f0      :    -0.001924  f :     0.002085
      f+1     :     0.002005
      f-1     :     0.002005
      f+2     :     0.000000
      f-2     :     0.000000
      f+3     :     0.000000
      f-3     :     0.000000
      g0      :    -0.000521  g :     0.000643
      g+1     :     0.000582
      g-1     :     0.000582
      g+2     :     0.000000
      g-2     :     0.000000
      g+3     :     0.000000
      g-3     :     0.000000
      g+4     :     0.000000
      g-4     :     0.000000
  1 H s       :     0.046809  s :     0.046809
      pz      :     0.032103  p :     0.110440
      px      :     0.039169
      py      :     0.039169
      dz2     :    -0.000160  d :     0.057055
      dxz     :     0.028607
      dyz     :     0.028607
      dx2y2   :     0.000000
      dxy     :     0.000000


                      *****************************
                      * MAYER POPULATION ANALYSIS *
                      *****************************

  NA   - Mulliken gross atomic population
  ZA   - Total nuclear charge
  QA   - Mulliken gross atomic charge
  VA   - Mayer's total valence
  BVA  - Mayer's bonded valence
  FA   - Mayer's free valence

  ATOM       NA         ZA         QA         VA         BVA        FA
  0 Ti    21.8765    22.0000     0.1235     3.9220     0.9362     2.9858
  1 H      1.1235     1.0000    -0.1235     0.9486     0.9362     0.0124

  Mayer bond orders larger than 0.100000
B(  0-Ti,  1-H ) :   0.9362 

-------
TIMINGS
-------

Total SCF time: 0 days 0 hours 0 min 2 sec 

Total time                  ....       2.965 sec
Sum of individual times     ....       2.833 sec  ( 95.5%)

Fock matrix formation       ....       2.490 sec  ( 84.0%)
  Split-RI-J                ....       1.957 sec  ( 78.6% of F)
  XC integration            ....       0.438 sec  ( 17.6% of F)
    Basis function eval.    ....       0.064 sec  ( 14.6% of XC)
    Density eval.           ....       0.061 sec  ( 14.0% of XC)
    XC-Functional eval.     ....       0.019 sec  (  4.4% of XC)
    XC-Potential eval.      ....       0.178 sec  ( 40.6% of XC)
Diagonalization             ....       0.051 sec  (  1.7%)
Density matrix formation    ....       0.008 sec  (  0.3%)
Population analysis         ....       0.006 sec  (  0.2%)
Initial guess               ....       0.112 sec  (  3.8%)
Orbital Transformation      ....       0.000 sec  (  0.0%)
Orbital Orthonormalization  ....       0.000 sec  (  0.0%)
DIIS solution               ....       0.021 sec  (  0.7%)
Grid generation             ....       0.145 sec  (  4.9%)


-------------------------------------------------------------------------------
                          DFT DISPERSION CORRECTION                            
                                                                               
                              DFTD3 V3.1  Rev 1                                
                          USING Becke-Johnson damping                          
-------------------------------------------------------------------------------
The TPSS functional is recognized
Active option DFTDOPT                   ...         4   

molecular C6(AA) [au] = 747.882380 


            DFT-D V3
 parameters
 s6 scaling factor         :     1.0000 
 a1 scaling factor         :     0.4535 
 s8 scaling factor         :     1.9435 
 a2 scaling factor         :     4.4752 
 ad hoc parameters k1-k3   :    16.0000     1.3333    -4.0000 

 Edisp/kcal,au: -0.414033657690  -0.000659804562 
 E6   /kcal   :  -0.172202872 
 E8   /kcal   :  -0.241830786 
 % E8         :  58.408484768 

-------------------------   ----------------
Dispersion correction           -0.000659805
-------------------------   ----------------


-------------------------   --------------------
FINAL SINGLE POINT ENERGY      -849.977893011124
-------------------------   --------------------


                            ***************************************
                            *     ORCA property calculations      *
                            ***************************************

                                    ---------------------
                                    Active property flags
                                    ---------------------
   (+) Dipole Moment


------------------------------------------------------------------------------
                       ORCA ELECTRIC PROPERTIES CALCULATION
------------------------------------------------------------------------------

Dipole Moment Calculation                       ... on
Quadrupole Moment Calculation                   ... off
Polarizability Calculation                      ... off
GBWName                                         ... 07_TiH.gbw
Electron density file                           ... 07_TiH.scfp
The origin for moment calculation is the CENTER OF MASS  = ( 0.000000,  0.000000  0.289192)

-------------
DIPOLE MOMENT
-------------
                                X             Y             Z
Electronic contribution:      0.00000       0.00000      -2.53372
Nuclear contribution   :      0.00000       0.00000       1.75604
                        -----------------------------------------
Total Dipole Moment    :      0.00000       0.00000      -0.77767
                        -----------------------------------------
Magnitude (a.u.)       :      0.77767
Magnitude (Debye)      :      1.97669



--------------------
Rotational spectrum 
--------------------
 
Rotational constants in cm-1:     0.000000     5.470494     5.470494 
Rotational constants in MHz :     0.000000 164001.275229 164001.275229 

 Dipole components along the rotational axes: 
x,y,z [a.u.] :    -0.777675     0.000000     0.000000 
x,y,z [Debye]:    -1.976692     0.000000     0.000000 

 

Timings for individual modules:

Sum of individual times         ...        6.408 sec (=   0.107 min)
GTO integral calculation        ...        3.115 sec (=   0.052 min)  48.6 %
SCF iterations                  ...        3.293 sec (=   0.055 min)  51.4 %
                             ****ORCA TERMINATED NORMALLY****
TOTAL RUN TIME: 0 days 0 hours 0 minutes 6 seconds 984 msec
