
                                 *****************
                                 * O   R   C   A *
                                 *****************

           --- An Ab Initio, DFT and Semiempirical electronic structure package ---

                  #######################################################
                  #                        -***-                        #
                  #          Department of theory and spectroscopy      #
                  #               Directorship: Frank Neese             #
                  #        Max Planck Institute fuer Kohlenforschung    #
                  #                Kaiser Wilhelm Platz 1               #
                  #                 D-45470 Muelheim/Ruhr               #
                  #                      Germany                        #
                  #                                                     #
                  #                  All rights reserved                #
                  #                        -***-                        #
                  #######################################################


                         Program Version 4.2.0 -  RELEASE  -


 With contributions from (in alphabetic order):
   Daniel Aravena         : Magnetic Suceptibility
   Michael Atanasov       : Ab Initio Ligand Field Theory (pilot matlab implementation)
   Alexander A. Auer      : GIAO ZORA, VPT2
   Ute Becker             : Parallelization
   Giovanni Bistoni       : ED, misc. LED, open-shell LED, HFLED
   Martin Brehm           : Molecular dynamics
   Dmytro Bykov           : SCF Hessian
   Vijay G. Chilkuri      : MRCI spin determinant printing, contributions to CSF-ICE
   Dipayan Datta          : RHF DLPNO-CCSD density
   Achintya Kumar Dutta   : EOM-CC, STEOM-CC
   Dmitry Ganyushin       : Spin-Orbit,Spin-Spin,Magnetic field MRCI
   Miquel Garcia          : C-PCM Hessian, Gaussian charge scheme
   Yang Guo               : DLPNO-NEVPT2, CIM, IAO-localization
   Andreas Hansen         : Spin unrestricted coupled pair/coupled cluster methods
   Benjamin Helmich-Paris : CASSCF linear response (MC-RPA)
   Lee Huntington         : MR-EOM, pCC
   Robert Izsak           : Overlap fitted RIJCOSX, COSX-SCS-MP3, EOM
   Christian Kollmar      : KDIIS, OOCD, Brueckner-CCSD(T), CCSD density
   Simone Kossmann        : Meta GGA functionals, TD-DFT gradient, OOMP2, MP2 Hessian
   Martin Krupicka        : AUTO-CI
   Lucas Lang             : DCDCAS
   Dagmar Lenk            : GEPOL surface, SMD
   Dimitrios Liakos       : Extrapolation schemes; Compound Job, initial MDCI parallelization
   Dimitrios Manganas     : Further ROCIS development; embedding schemes
   Dimitrios Pantazis     : SARC Basis sets
   Taras Petrenko         : DFT Hessian,TD-DFT gradient, ASA, ECA, R-Raman, ABS, FL, XAS/XES, NRVS
   Peter Pinski           : DLPNO-MP2, DLPNO-MP2 Gradient
   Christoph Reimann      : Effective Core Potentials
   Marius Retegan         : Local ZFS, SOC
   Christoph Riplinger    : Optimizer, TS searches, QM/MM, DLPNO-CCSD(T), (RO)-DLPNO pert. Triples
   Tobias Risthaus        : Range-separated hybrids, TD-DFT gradient, RPA, STAB
   Michael Roemelt        : Original ROCIS implementation
   Masaaki Saitow         : Open-shell DLPNO-CCSD energy and density
   Barbara Sandhoefer     : DKH picture change effects
   Avijit Sen             : IP-ROCIS
   Kantharuban Sivalingam : CASSCF convergence, NEVPT2, FIC-MRCI
   Bernardo de Souza      : ESD, SOC TD-DFT
   Georgi Stoychev        : AutoAux, RI-MP2 NMR
   Willem Van den Heuvel  : Paramagnetic NMR
   Boris Wezisla          : Elementary symmetry handling
   Frank Wennmohs         : Technical directorship


 We gratefully acknowledge several colleagues who have allowed us to
 interface, adapt or use parts of their codes:
   Stefan Grimme, W. Hujo, H. Kruse,             : VdW corrections, initial TS optimization,
                  C. Bannwarth                     DFT functionals, gCP, sTDA/sTD-DF
   Ed Valeev, F. Pavosevic, A. Kumar             : LibInt (2-el integral package), F12 methods
   Garnet Chan, S. Sharma, J. Yang, R. Olivares  : DMRG
   Ulf Ekstrom                                   : XCFun DFT Library
   Mihaly Kallay                                 : mrcc  (arbitrary order and MRCC methods)
   Andreas Klamt, Michael Diedenhofen            : otool_cosmo (COSMO solvation model)
   Jiri Pittner, Ondrej Demel                    : Mk-CCSD
   Frank Weinhold                                : gennbo (NPA and NBO analysis)
   Christopher J. Cramer and Donald G. Truhlar   : smd solvation model
   Lars Goerigk                                  : TD-DFT with DH, B97 family of functionals
   V. Asgeirsson, H. Jonsson                     : NEB implementation
   FAccTs GmbH                                   : IRC, NEB, NEB-TS, Multilevel, MM, QM/MM, CI optimization
   S Lehtola, MJT Oliveira, MAL Marques          : LibXC Library


 Your calculation uses the libint2 library for the computation of 2-el integrals
 For citations please refer to: http://libint.valeyev.net

 Your ORCA version has been built with support for libXC version: 4.2.3
 For citations please refer to: https://tddft.org/programs/libxc/

 This ORCA versions uses:
   CBLAS   interface :  Fast vector & matrix operations
   LAPACKE interface :  Fast linear algebra routines
   SCALAPACK package :  Parallel linear algebra routines


Your calculation utilizes the atom-pairwise dispersion correction
with the Becke-Johnson damping scheme (D3BJ)
Cite in your paper:
S.Grimme, S.Ehrlich, L.Goerigk, J Comput Chem, (2011), 32, 1456–1465 
S.Grimme, J.Antony, S.Ehrlich and H.Krieg, J.Chem.Phys., 132, (2010), 154104 
   

----- Orbital basis set information -----
Your calculation utilizes the basis: aug-cc-pVTZ 
    H, B-Ne : Obtained from the ccRepo (grant-hill.group.shef.ac.uk/ccrepo) Feb. 2017
              R. A. Kendall, T. H. Dunning, Jr., R. J. Harrison, J. Chem. Phys. 96, 6796 (1992)
         He : Obtained from the ccRepo (grant-hill.group.shef.ac.uk/ccrepo) Feb. 2017
              D. E. Woon, T. H. Dunning, Jr., J. Chem. Phys. 100, 2975 (1994)
  Li-Be, Na : Obtained from the ccRepo (grant-hill.group.shef.ac.uk/ccrepo) Feb. 2017
              B. P. Prascher, D. E. Woon, K. A. Peterson, T. H. Dunning, Jr., A. K. Wilson, Theor. Chem. Acc. 128, 69 (2011)
         Mg : Obtained from the Peterson Research Group Website (tyr0.chem.wsu.edu/~kipeters) Feb. 2017
              B. P. Prascher, D. E. Woon, K. A. Peterson, T. H. Dunning, Jr., A. K. Wilson, Theor. Chem. Acc. 128, 69 (2011)
      Al-Ar : Obtained from the ccRepo (grant-hill.group.shef.ac.uk/ccrepo) Feb. 2017
              D. E. Woon, T. H. Dunning, Jr., J. Chem. Phys. 98, 1358 (1993)
      Sc-Zn : Obtained from the ccRepo (grant-hill.group.shef.ac.uk/ccrepo) Feb. 2017
              N. B. Balabanov, K. A. Peterson, J. Chem. Phys. 123, 064107 (2005)
              N. B. Balabanov, K. A. Peterson, J. Chem. Phys. 125, 074110 (2006)
      Ga-Kr : Obtained from the ccRepo (grant-hill.group.shef.ac.uk/ccrepo) Feb. 2017
              A. K. Wilson, D. E. Woon, K. A. Peterson, T. H. Dunning, Jr., J. Chem. Phys. 110, 7667 (1999)
     Ag, Au : Obtained from the Peterson Research Group Website (tyr0.chem.wsu.edu/~kipeters) Feb. 2017
              K. A. Peterson, C. Puzzarini, Theor. Chem. Acc. 114, 283 (2005)

----- AuxJ basis set information -----
Your calculation utilizes the auxiliary basis: def2/J
   F. Weigend, Phys. Chem. Chem. Phys. 8, 1057 (2006).

================================================================================
                                        WARNINGS
                       Please study these warnings very carefully!
================================================================================


WARNING: your system is open-shell and RHF/RKS was chosen
  ===> : WILL SWITCH to UHF/UKS


INFO   : the flag for use of LIBINT has been found!

================================================================================
                                       INPUT FILE
================================================================================
NAME = 10_TiBr.in
|  1> #
|  2> # 10_TiBr tpss/aug-cc-pvtz
|  3> #
|  4> ! tpss d3bj aug-cc-pvtz def2/j grid4 nofinalgrid
|  5> 
|  6> *xyz 0 4
|  7>   Ti  0.00000000000000      0.00000000000000     -0.20373332414567
|  8>   Br  0.00000000000000      0.00000000000000      2.20373332414567
|  9> *
| 10> 
| 11> %pal
| 12> nprocs 24
| 13> end
| 14> 
| 15> 
| 16>                          ****END OF INPUT****
================================================================================

                       ****************************
                       * Single Point Calculation *
                       ****************************

---------------------------------
CARTESIAN COORDINATES (ANGSTROEM)
---------------------------------
  Ti     0.000000    0.000000   -0.203733
  Br     0.000000    0.000000    2.203733

----------------------------
CARTESIAN COORDINATES (A.U.)
----------------------------
  NO LB      ZA    FRAG     MASS         X           Y           Z
   0 Ti   22.0000    0    47.900    0.000000    0.000000   -0.385000
   1 Br   35.0000    0    79.900    0.000000    0.000000    4.164452

--------------------------------
INTERNAL COORDINATES (ANGSTROEM)
--------------------------------
 Ti     0   0   0     0.000000000000     0.00000000     0.00000000
 Br     1   0   0     2.407466648291     0.00000000     0.00000000

---------------------------
INTERNAL COORDINATES (A.U.)
---------------------------
 Ti     0   0   0     0.000000000000     0.00000000     0.00000000
 Br     1   0   0     4.549452641820     0.00000000     0.00000000

---------------------
BASIS SET INFORMATION
---------------------
There are 2 groups of distinct atoms

 Group   1 Type Ti  : 116s77p23d3f2g contracted to 8s7p5d3f2g pattern {19191919191911/151515151511/77711/111/11}
 Group   2 Type Br  : 75s36p10d2f contracted to 7s6p4d2f pattern {18181818111/111111111/7111/11}

Atom   0Ti   basis set group =>   1
Atom   1Br   basis set group =>   2
---------------------------------
AUXILIARY/J BASIS SET INFORMATION
---------------------------------
There are 2 groups of distinct atoms

 Group   1 Type Ti  : 19s5p5d3f3g contracted to 8s5p5d2f3g pattern {121111111/11111/11111/21/111}
 Group   2 Type Br  : 19s5p5d3f1g contracted to 8s4p3d2f1g pattern {121111111/2111/311/21/1}

Atom   0Ti   basis set group =>   1
Atom   1Br   basis set group =>   2


           ************************************************************
           *        Program running with 24 parallel MPI-processes    *
           *              working on a common directory               *
           ************************************************************
------------------------------------------------------------------------------
                           ORCA GTO INTEGRAL CALCULATION
                           -- RI-GTO INTEGRALS CHOSEN --
------------------------------------------------------------------------------

                         BASIS SET STATISTICS AND STARTUP INFO

Gaussian basis set:
 # of primitive gaussian shells          ...  344
 # of primitive gaussian functions       ...  748
 # of contracted shells                  ...   44
 # of contracted basis functions         ...  152
 Highest angular momentum                ...    4
 Maximum contraction depth               ...   19
Auxiliary gaussian basis set:
 # of primitive gaussian shells          ...   68
 # of primitive gaussian functions       ...  196
 # of contracted shells                  ...   41
 # of contracted aux-basis functions     ...  147
 Highest angular momentum                ...    4
 Maximum contraction depth               ...   12
Ratio of auxiliary to basis functions    ...  0.97
Integral package used                  ... LIBINT
 One Electron integrals                  ... done
 Ordering auxiliary basis shells         ... done
 Integral threshhold             Thresh  ...  1.000e-10
 Primitive cut-off               TCut    ...  1.000e-11
 Pre-screening matrix                    ... done
 Shell pair data                         ... 
 Ordering of the shell pairs             ... done (   0.000 sec) 990 of 990 pairs
 Determination of significant pairs      ... done (   0.000 sec)
 Creation of shell pair data             ... done (   0.002 sec)
 Storage of shell pair data              ... done (   0.004 sec)
 Shell pair data done in (   0.006 sec)
 Computing two index integrals           ... done
 Cholesky decomposition of the V-matrix  ... done


Timings:
 Total evaluation time                   ...   4.611 sec (  0.077 min)
 One electron matrix time                ...   0.043 sec (  0.001 min) =  0.9%
 Schwartz matrix evaluation time         ...   4.494 sec (  0.075 min) = 97.5%
 Two index repulsion integral time       ...   0.001 sec (  0.000 min) =  0.0%
 Cholesky decomposition of V             ...   0.001 sec (  0.000 min) =  0.0%
 Three index repulsion integral time     ...   0.000 sec (  0.000 min) =  0.0%



           ************************************************************
           *        Program running with 24 parallel MPI-processes    *
           *              working on a common directory               *
           ************************************************************
-------------------------------------------------------------------------------
                                 ORCA SCF
-------------------------------------------------------------------------------

------------
SCF SETTINGS
------------
Hamiltonian:
 Density Functional     Method          .... DFT(GTOs)
 Exchange Functional    Exchange        .... TPSS
 Correlation Functional Correlation     .... TPSS
 LDA part of GGA corr.  LDAOpt          .... PW91-LDA
 Gradients option       PostSCFGGA      .... off
   Density functional embedding theory  .... OFF
   NL short-range parameter             ....  5.000000
 RI-approximation to the Coulomb term is turned on
   Number of auxiliary basis functions  .... 147


General Settings:
 Integral files         IntName         .... 10_TiBr
 Hartree-Fock type      HFTyp           .... UHF
 Total Charge           Charge          ....    0
 Multiplicity           Mult            ....    4
 Number of Electrons    NEL             ....   57
 Basis Dimension        Dim             ....  152
 Nuclear Repulsion      ENuc            ....    169.2511298880 Eh

Convergence Acceleration:
 DIIS                   CNVDIIS         .... on
   Start iteration      DIISMaxIt       ....    12
   Startup error        DIISStart       ....  0.200000
   # of expansion vecs  DIISMaxEq       ....     5
   Bias factor          DIISBfac        ....   1.050
   Max. coefficient     DIISMaxC        ....  10.000
 Newton-Raphson         CNVNR           .... off
 SOSCF                  CNVSOSCF        .... off
 Level Shifting         CNVShift        .... on
   Level shift para.    LevelShift      ....    0.2500
   Turn off err/grad.   ShiftErr        ....    0.0010
 Zerner damping         CNVZerner       .... off
 Static damping         CNVDamp         .... on
   Fraction old density DampFac         ....    0.7000
   Max. Damping (<1)    DampMax         ....    0.9800
   Min. Damping (>=0)   DampMin         ....    0.0000
   Turn off err/grad.   DampErr         ....    0.1000
 Fernandez-Rico         CNVRico         .... off

SCF Procedure:
 Maximum # iterations   MaxIter         ....   125
 SCF integral mode      SCFMode         .... Direct
   Integral package                     .... LIBINT
 Reset frequency        DirectResetFreq ....    20
 Integral Threshold     Thresh          ....  1.000e-10 Eh
 Primitive CutOff       TCut            ....  1.000e-11 Eh

Convergence Tolerance:
 Convergence Check Mode ConvCheckMode   .... Total+1el-Energy
 Convergence forced     ConvForced      .... 0
 Energy Change          TolE            ....  1.000e-06 Eh
 1-El. energy change                    ....  1.000e-03 Eh
 DIIS Error             TolErr          ....  1.000e-06


Diagonalization of the overlap matrix:
Smallest eigenvalue                        ... 4.839e-05
Time for diagonalization                   ...    0.006 sec
Threshold for overlap eigenvalues          ... 1.000e-08
Number of eigenvalues below threshold      ... 0
Time for construction of square roots      ...    0.003 sec
Total time needed                          ...    0.009 sec

-------------------
DFT GRID GENERATION
-------------------

General Integration Accuracy     IntAcc      ...  4.670
Radial Grid Type                 RadialGrid  ... Gauss-Chebyshev
Angular Grid (max. acc.)         AngularGrid ... Lebedev-302
Angular grid pruning method      GridPruning ... 3 (G Style)
Weight generation scheme         WeightScheme... Becke
Basis function cutoff            BFCut       ...    1.0000e-10
Integration weight cutoff        WCut        ...    1.0000e-14
Grids for H and He will be reduced by one unit

# of grid points (after initial pruning)     ...  19280 (   0.0 sec)
# of grid points (after weights+screening)   ...  19254 (   0.0 sec)
nearest neighbour list constructed           ...    0.0 sec
Grid point re-assignment to atoms done       ...    0.0 sec
Grid point division into batches done        ...    0.2 sec
Reduced shell lists constructed in    0.2 sec

Total number of grid points                  ...    19254
Total number of batches                      ...      302
Average number of points per batch           ...       63
Average number of grid points per atom       ...     9627
Average number of shells per batch           ...    20.07 (45.62%)
Average number of basis functions per batch  ...    56.93 (37.45%)
Average number of large shells per batch     ...    13.36 (66.55%)
Average number of large basis fcns per batch ...    38.07 (66.88%)
Maximum spatial batch extension              ...  24.49, 24.19, 17.83 au
Average spatial batch extension              ...   0.84,  0.83,  0.67 au

Time for grid setup =    0.205 sec

------------------------------
INITIAL GUESS: MODEL POTENTIAL
------------------------------
Loading Hartree-Fock densities                     ... done
Calculating cut-offs                               ... done
Setting up the integral package                    ... done
Initializing the effective Hamiltonian             ... done
Starting the Coulomb interaction                   ... done (   0.0 sec)
Reading the grid                                   ... done
Mapping shells                                     ... done
Starting the XC term evaluation                    ... done (   0.0 sec)
  promolecular density results
     # of electrons  =     56.999997824
     EX              =   -130.119769711
     EC              =     -2.607148094
     EX+EC           =   -132.726917805
Transforming the Hamiltonian                       ... done (   0.0 sec)
Diagonalizing the Hamiltonian                      ... done (   0.0 sec)
Back transforming the eigenvectors                 ... done (   0.0 sec)
Now organizing SCF variables                       ... done
                      ------------------
                      INITIAL GUESS DONE (   0.3 sec)
                      ------------------
--------------
SCF ITERATIONS
--------------
ITER       Energy         Delta-E        Max-DP      RMS-DP      [F,P]     Damp
               ***  Starting incremental Fock matrix formation  ***
  0  -3423.5554553413   0.000000000000 0.15459261  0.00249122  0.1059741 0.7000
  1  -3423.5780495847  -0.022594243381 0.05275004  0.00102817  0.0367910 0.7000
                               ***Turning on DIIS***
  2  -3423.5859895011  -0.007939916446 0.07890503  0.00135244  0.0256075 0.0000
  3  -3423.5977344203  -0.011744919206 0.04313546  0.00086230  0.0286757 0.0000
  4  -3423.6016614133  -0.003926992945 0.04241459  0.00077257  0.0122158 0.0000
  5  -3423.6023828752  -0.000721461972 0.00929370  0.00019854  0.0030152 0.0000
  6  -3423.6024679224  -0.000085047199 0.00298499  0.00006128  0.0011872 0.0000
  7  -3423.6024922196  -0.000024297160 0.00806076  0.00007357  0.0006397 0.0000
  8  -3423.6025092522  -0.000017032611 0.00158406  0.00002965  0.0007828 0.0000
  9  -3423.6025110297  -0.000001777490 0.00165415  0.00001343  0.0002075 0.0000
 10  -3423.6025106956   0.000000334092 0.00035081  0.00000677  0.0003459 0.0000
                 **** Energy Check signals convergence ****

               *****************************************************
               *                     SUCCESS                       *
               *           SCF CONVERGED AFTER  11 CYCLES          *
               *****************************************************


----------------
TOTAL SCF ENERGY
----------------

Total Energy       :        -3423.60251113 Eh          -93160.96054 eV

Components:
Nuclear Repulsion  :          169.25112989 Eh            4605.55739 eV
Electronic Energy  :        -3592.85364101 Eh          -97766.51793 eV
One Electron Energy:        -5086.10889070 Eh         -138400.05904 eV
Two Electron Energy:         1493.25524968 Eh           40633.54111 eV

Virial components:
Potential Energy   :        -6841.77378340 Eh         -186174.12956 eV
Kinetic Energy     :         3418.17127228 Eh           93013.16902 eV
Virial Ratio       :            2.00158893


DFT components:
N(Alpha)           :       30.000002794239 electrons
N(Beta)            :       27.000001993937 electrons
N(Total)           :       57.000004788176 electrons
E(X)               :     -130.790136381524 Eh       
E(C)               :       -2.611474557687 Eh       
E(XC)              :     -133.401610939211 Eh       
DFET-embed. en.    :        0.000000000000 Eh       

---------------
SCF CONVERGENCE
---------------

  Last Energy change         ...   -4.2950e-07  Tolerance :   1.0000e-06
  Last MAX-Density change    ...    6.5443e-05  Tolerance :   1.0000e-05
  Last RMS-Density change    ...    1.2709e-06  Tolerance :   1.0000e-06
  Last DIIS Error            ...    4.1640e-05  Tolerance :   1.0000e-06

             **** THE GBW FILE WAS UPDATED (10_TiBr.gbw) ****
             **** DENSITY FILE WAS UPDATED (10_TiBr.scfp) ****
             **** ENERGY FILE WAS UPDATED (10_TiBr.en.tmp) ****
----------------------
UHF SPIN CONTAMINATION
----------------------

Warning: in a DFT calculation there is little theoretical justification to 
         calculate <S**2> as in Hartree-Fock theory. We will do it anyways
         but you should keep in mind that the values have only limited relevance

Expectation value of <S**2>     :     3.759945
Ideal value S*(S+1) for S=1.5   :     3.750000
Deviation                       :     0.009945

             **** THE GBW FILE WAS UPDATED (10_TiBr.gbw) ****
             **** DENSITY FILE WAS UPDATED (10_TiBr.scfp) ****
----------------
ORBITAL ENERGIES
----------------
                 SPIN UP ORBITALS
  NO   OCC          E(Eh)            E(eV) 
   0   1.0000    -481.700503    -13107.7371 
   1   1.0000    -178.117176     -4846.8148 
   2   1.0000     -61.918598     -1684.8907 
   3   1.0000     -55.750868     -1517.0583 
   4   1.0000     -55.750467     -1517.0473 
   5   1.0000     -55.750467     -1517.0473 
   6   1.0000     -19.508969      -530.8660 
   7   1.0000     -16.245117      -442.0521 
   8   1.0000     -16.233042      -441.7235 
   9   1.0000     -16.233042      -441.7235 
  10   1.0000      -8.444310      -229.7813 
  11   1.0000      -6.281462      -170.9273 
  12   1.0000      -6.280183      -170.8925 
  13   1.0000      -6.280183      -170.8925 
  14   1.0000      -2.450439       -66.6798 
  15   1.0000      -2.449884       -66.6647 
  16   1.0000      -2.449884       -66.6647 
  17   1.0000      -2.448757       -66.6341 
  18   1.0000      -2.448713       -66.6329 
  19   1.0000      -2.239850       -60.9494 
  20   1.0000      -1.395376       -37.9701 
  21   1.0000      -1.374884       -37.4125 
  22   1.0000      -1.374884       -37.4125 
  23   1.0000      -0.671237       -18.2653 
  24   1.0000      -0.283420        -7.7122 
  25   1.0000      -0.250490        -6.8162 
  26   1.0000      -0.250490        -6.8162 
  27   1.0000      -0.158473        -4.3123 
  28   1.0000      -0.119795        -3.2598 
  29   1.0000      -0.119793        -3.2597 
  30   0.0000      -0.104570        -2.8455 
  31   0.0000      -0.104570        -2.8455 
  32   0.0000      -0.103980        -2.8294 
  33   0.0000      -0.041022        -1.1163 
  34   0.0000      -0.041022        -1.1163 
  35   0.0000      -0.004806        -0.1308 
  36   0.0000      -0.000187        -0.0051 
  37   0.0000       0.017323         0.4714 
  38   0.0000       0.017323         0.4714 
  39   0.0000       0.025807         0.7023 
  40   0.0000       0.025816         0.7025 
  41   0.0000       0.028630         0.7791 
  42   0.0000       0.029222         0.7952 
  43   0.0000       0.029222         0.7952 
  44   0.0000       0.045486         1.2377 
  45   0.0000       0.074549         2.0286 
  46   0.0000       0.095051         2.5865 
  47   0.0000       0.097472         2.6523 
  48   0.0000       0.097472         2.6523 
  49   0.0000       0.116774         3.1776 
  50   0.0000       0.116774         3.1776 
  51   0.0000       0.119808         3.2601 
  52   0.0000       0.119812         3.2603 
  53   0.0000       0.123734         3.3670 
  54   0.0000       0.131597         3.5809 
  55   0.0000       0.131597         3.5809 
  56   0.0000       0.160270         4.3612 
  57   0.0000       0.178266         4.8509 
  58   0.0000       0.178267         4.8509 
  59   0.0000       0.216825         5.9001 
  60   0.0000       0.227914         6.2019 
  61   0.0000       0.227914         6.2019 
  62   0.0000       0.256973         6.9926 
  63   0.0000       0.256973         6.9926 
  64   0.0000       0.282451         7.6859 
  65   0.0000       0.298598         8.1253 
  66   0.0000       0.298602         8.1254 
  67   0.0000       0.309559         8.4235 
  68   0.0000       0.309559         8.4235 
  69   0.0000       0.343387         9.3440 
  70   0.0000       0.398595        10.8463 
  71   0.0000       0.463140        12.6027 
  72   0.0000       0.463140        12.6027 
  73   0.0000       0.488888        13.3033 
  74   0.0000       0.488890        13.3034 
  75   0.0000       0.488925        13.3043 
  76   0.0000       0.488925        13.3043 
  77   0.0000       0.551886        15.0176 
  78   0.0000       0.596020        16.2185 
  79   0.0000       0.608519        16.5586 
  80   0.0000       0.609978        16.5983 
  81   0.0000       0.609986        16.5986 
  82   0.0000       0.610486        16.6122 
  83   0.0000       0.610486        16.6122 
  84   0.0000       0.647644        17.6233 
  85   0.0000       0.647644        17.6233 
  86   0.0000       0.746816        20.3219 
  87   0.0000       0.746816        20.3219 
  88   0.0000       0.754715        20.5368 
  89   0.0000       0.798450        21.7269 
  90   0.0000       0.798455        21.7271 
  91   0.0000       0.865195        23.5432 
  92   0.0000       0.865196        23.5432 
  93   0.0000       0.871648        23.7187 
  94   0.0000       0.871648        23.7187 
  95   0.0000       0.878378        23.9019 
  96   0.0000       0.878378        23.9019 
  97   0.0000       0.915339        24.9076 
  98   0.0000       0.915339        24.9076 
  99   0.0000       0.936294        25.4779 
 100   0.0000       0.943284        25.6681 
 101   0.0000       0.943284        25.6681 
 102   0.0000       1.031275        28.0624 
 103   0.0000       1.060592        28.8602 
 104   0.0000       1.060592        28.8602 
 105   0.0000       1.161031        31.5933 
 106   0.0000       1.161036        31.5934 
 107   0.0000       1.239892        33.7392 
 108   0.0000       1.376143        37.4468 
 109   0.0000       1.376143        37.4468 
 110   0.0000       1.601322        43.5742 
 111   0.0000       1.826431        49.6997 
 112   0.0000       1.826431        49.6997 
 113   0.0000       1.836565        49.9755 
 114   0.0000       1.915291        52.1177 
 115   0.0000       1.915291        52.1177 
 116   0.0000       1.935536        52.6686 
 117   0.0000       1.988973        54.1227 
 118   0.0000       1.989027        54.1242 
 119   0.0000       2.033522        55.3349 
 120   0.0000       2.033522        55.3349 
 121   0.0000       2.050869        55.8070 
 122   0.0000       2.050896        55.8077 
 123   0.0000       2.110311        57.4245 
 124   0.0000       2.110362        57.4259 
 125   0.0000       2.124755        57.8175 
 126   0.0000       2.124755        57.8175 
 127   0.0000       2.133533        58.0564 
 128   0.0000       2.180583        59.3367 
 129   0.0000       2.180583        59.3367 
 130   0.0000       2.202747        59.9398 
 131   0.0000       2.235539        60.8321 
 132   0.0000       2.235539        60.8321 
 133   0.0000       2.486926        67.6727 
 134   0.0000       2.774269        75.4917 
 135   0.0000       3.202101        87.1336 
 136   0.0000       3.202221        87.1369 
 137   0.0000       3.212932        87.4283 
 138   0.0000       3.212932        87.4283 
 139   0.0000       3.240890        88.1891 
 140   0.0000       3.240938        88.1904 
 141   0.0000       3.260218        88.7150 
 142   0.0000       3.260218        88.7150 
 143   0.0000       3.389215        92.2252 
 144   0.0000       3.389215        92.2252 
 145   0.0000       3.396887        92.4340 
 146   0.0000       3.411186        92.8231 
 147   0.0000       3.411198        92.8234 
 148   0.0000       3.566066        97.0376 
 149   0.0000       3.566066        97.0376 
 150   0.0000       3.981375       108.3387 
 151   0.0000       4.456477       121.2669 

                 SPIN DOWN ORBITALS
  NO   OCC          E(Eh)            E(eV) 
   0   1.0000    -481.700720    -13107.7430 
   1   1.0000    -178.116718     -4846.8023 
   2   1.0000     -61.918659     -1684.8924 
   3   1.0000     -55.751088     -1517.0642 
   4   1.0000     -55.750618     -1517.0514 
   5   1.0000     -55.750618     -1517.0514 
   6   1.0000     -19.487666      -530.2864 
   7   1.0000     -16.235394      -441.7875 
   8   1.0000     -16.212106      -441.1538 
   9   1.0000     -16.212106      -441.1538 
  10   1.0000      -8.444586      -229.7889 
  11   1.0000      -6.281839      -170.9375 
  12   1.0000      -6.280464      -170.9001 
  13   1.0000      -6.280464      -170.9001 
  14   1.0000      -2.450879       -66.6918 
  15   1.0000      -2.450309       -66.6763 
  16   1.0000      -2.450309       -66.6763 
  17   1.0000      -2.449102       -66.6435 
  18   1.0000      -2.449058       -66.6423 
  19   1.0000      -2.169418       -59.0329 
  20   1.0000      -1.351328       -36.7715 
  21   1.0000      -1.287345       -35.0304 
  22   1.0000      -1.287345       -35.0304 
  23   1.0000      -0.673345       -18.3226 
  24   1.0000      -0.279606        -7.6085 
  25   1.0000      -0.250177        -6.8077 
  26   1.0000      -0.250177        -6.8077 
  27   0.0000      -0.097979        -2.6662 
  28   0.0000      -0.067218        -1.8291 
  29   0.0000      -0.067218        -1.8291 
  30   0.0000      -0.061394        -1.6706 
  31   0.0000      -0.028909        -0.7866 
  32   0.0000      -0.028909        -0.7866 
  33   0.0000      -0.006163        -0.1677 
  34   0.0000      -0.006163        -0.1677 
  35   0.0000       0.008103         0.2205 
  36   0.0000       0.012421         0.3380 
  37   0.0000       0.030735         0.8363 
  38   0.0000       0.030735         0.8363 
  39   0.0000       0.040594         1.1046 
  40   0.0000       0.040844         1.1114 
  41   0.0000       0.040844         1.1114 
  42   0.0000       0.044514         1.2113 
  43   0.0000       0.044531         1.2118 
  44   0.0000       0.055205         1.5022 
  45   0.0000       0.096748         2.6326 
  46   0.0000       0.101745         2.7686 
  47   0.0000       0.102274         2.7830 
  48   0.0000       0.102274         2.7830 
  49   0.0000       0.142833         3.8867 
  50   0.0000       0.145797         3.9673 
  51   0.0000       0.145797         3.9673 
  52   0.0000       0.146555         3.9880 
  53   0.0000       0.146562         3.9882 
  54   0.0000       0.150847         4.1048 
  55   0.0000       0.150847         4.1048 
  56   0.0000       0.172197         4.6857 
  57   0.0000       0.190133         5.1738 
  58   0.0000       0.190133         5.1738 
  59   0.0000       0.235247         6.4014 
  60   0.0000       0.257260         7.0004 
  61   0.0000       0.257260         7.0004 
  62   0.0000       0.267318         7.2741 
  63   0.0000       0.267318         7.2741 
  64   0.0000       0.290236         7.8977 
  65   0.0000       0.315963         8.5978 
  66   0.0000       0.315965         8.5978 
  67   0.0000       0.324414         8.8277 
  68   0.0000       0.324414         8.8277 
  69   0.0000       0.363526         9.8920 
  70   0.0000       0.423976        11.5370 
  71   0.0000       0.473435        12.8828 
  72   0.0000       0.473435        12.8828 
  73   0.0000       0.524719        14.2783 
  74   0.0000       0.524719        14.2783 
  75   0.0000       0.538388        14.6503 
  76   0.0000       0.538389        14.6503 
  77   0.0000       0.565967        15.4007 
  78   0.0000       0.596212        16.2238 
  79   0.0000       0.613722        16.7002 
  80   0.0000       0.613726        16.7003 
  81   0.0000       0.625100        17.0098 
  82   0.0000       0.628677        17.1072 
  83   0.0000       0.628677        17.1072 
  84   0.0000       0.666524        18.1370 
  85   0.0000       0.666524        18.1370 
  86   0.0000       0.753356        20.4999 
  87   0.0000       0.753356        20.4999 
  88   0.0000       0.773667        21.0526 
  89   0.0000       0.808407        21.9979 
  90   0.0000       0.808410        21.9979 
  91   0.0000       0.880558        23.9612 
  92   0.0000       0.880558        23.9612 
  93   0.0000       0.897864        24.4321 
  94   0.0000       0.897878        24.4325 
  95   0.0000       0.938017        25.5247 
  96   0.0000       0.938017        25.5247 
  97   0.0000       0.944088        25.6899 
  98   0.0000       0.944090        25.6900 
  99   0.0000       0.956598        26.0304 
 100   0.0000       0.974941        26.5295 
 101   0.0000       0.974941        26.5295 
 102   0.0000       1.039908        28.2973 
 103   0.0000       1.070755        29.1367 
 104   0.0000       1.070755        29.1367 
 105   0.0000       1.177041        32.0289 
 106   0.0000       1.177044        32.0290 
 107   0.0000       1.261528        34.3279 
 108   0.0000       1.390567        37.8392 
 109   0.0000       1.390567        37.8392 
 110   0.0000       1.610817        43.8325 
 111   0.0000       1.869234        50.8644 
 112   0.0000       1.869234        50.8644 
 113   0.0000       1.871254        50.9194 
 114   0.0000       1.931531        52.5596 
 115   0.0000       1.931531        52.5596 
 116   0.0000       1.952782        53.1379 
 117   0.0000       1.989762        54.1442 
 118   0.0000       1.989828        54.1460 
 119   0.0000       2.031470        55.2791 
 120   0.0000       2.031470        55.2791 
 121   0.0000       2.086290        56.7708 
 122   0.0000       2.086317        56.7716 
 123   0.0000       2.131003        57.9875 
 124   0.0000       2.131003        57.9875 
 125   0.0000       2.149897        58.5017 
 126   0.0000       2.149905        58.5019 
 127   0.0000       2.168770        59.0152 
 128   0.0000       2.188683        59.5571 
 129   0.0000       2.188683        59.5571 
 130   0.0000       2.207701        60.0746 
 131   0.0000       2.268824        61.7378 
 132   0.0000       2.268824        61.7378 
 133   0.0000       2.524957        68.7076 
 134   0.0000       2.807203        76.3879 
 135   0.0000       3.259060        88.6835 
 136   0.0000       3.259060        88.6835 
 137   0.0000       3.274258        89.0971 
 138   0.0000       3.274278        89.0976 
 139   0.0000       3.277251        89.1785 
 140   0.0000       3.277326        89.1806 
 141   0.0000       3.298516        89.7572 
 142   0.0000       3.298516        89.7572 
 143   0.0000       3.441551        93.6494 
 144   0.0000       3.463176        94.2378 
 145   0.0000       3.463224        94.2391 
 146   0.0000       3.486054        94.8604 
 147   0.0000       3.486054        94.8604 
 148   0.0000       3.619786        98.4994 
 149   0.0000       3.619786        98.4994 
 150   0.0000       4.029628       109.6518 
 151   0.0000       4.458098       121.3110 

                    ********************************
                    * MULLIKEN POPULATION ANALYSIS *
                    ********************************

--------------------------------------------
MULLIKEN ATOMIC CHARGES AND SPIN POPULATIONS
--------------------------------------------
   0 Ti:    0.325104    3.033331
   1 Br:   -0.325104   -0.033331
Sum of atomic charges         :   -0.0000000
Sum of atomic spin populations:    3.0000000

-----------------------------------------------------
MULLIKEN REDUCED ORBITAL CHARGES AND SPIN POPULATIONS
-----------------------------------------------------
CHARGE
  0 Tis       :     6.675252  s :     6.675252
      pz      :     4.088897  p :    12.146785
      px      :     4.028944
      py      :     4.028944
      dz2     :     0.621239  d :     2.824888
      dxz     :     0.105083
      dyz     :     0.105083
      dx2y2   :     0.996741
      dxy     :     0.996741
      f0      :     0.004129  f :     0.018940
      f+1     :     0.007201
      f-1     :     0.007201
      f+2     :     0.000205
      f-2     :     0.000205
      f+3     :     0.000000
      f-3     :     0.000000
      g0      :     0.002394  g :     0.009031
      g+1     :     0.003325
      g-1     :     0.003325
      g+2     :    -0.000006
      g-2     :    -0.000006
      g+3     :     0.000000
      g-3     :     0.000000
      g+4     :     0.000000
      g-4     :     0.000000
  1 Brs       :     8.032365  s :     8.032365
      pz      :     5.574159  p :    17.277950
      px      :     5.851895
      py      :     5.851895
      dz2     :     2.001274  d :    10.012472
      dxz     :     2.003199
      dyz     :     2.003199
      dx2y2   :     2.002400
      dxy     :     2.002400
      f0      :     0.000290  f :     0.002317
      f+1     :     0.000354
      f-1     :     0.000354
      f+2     :     0.000660
      f-2     :     0.000660
      f+3     :     0.000000
      f-3     :     0.000000

SPIN
  0 Tis       :     0.510344  s :     0.510344
      pz      :     0.016441  p :     0.029125
      px      :     0.006342
      py      :     0.006342
      dz2     :     0.462010  d :     2.498504
      dxz     :     0.021506
      dyz     :     0.021506
      dx2y2   :     0.996742
      dxy     :     0.996742
      f0      :    -0.000850  f :    -0.002592
      f+1     :    -0.001076
      f-1     :    -0.001076
      f+2     :     0.000205
      f-2     :     0.000205
      f+3     :    -0.000000
      f-3     :    -0.000000
      g0      :    -0.000239  g :    -0.002050
      g+1     :    -0.000893
      g-1     :    -0.000893
      g+2     :    -0.000013
      g-2     :    -0.000013
      g+3     :    -0.000000
      g-3     :    -0.000000
      g+4     :     0.000000
      g-4     :     0.000000
  1 Brs       :     0.033165  s :     0.033165
      pz      :    -0.023038  p :    -0.076490
      px      :    -0.026726
      py      :    -0.026726
      dz2     :     0.001694  d :     0.007861
      dxz     :     0.000677
      dyz     :     0.000677
      dx2y2   :     0.002406
      dxy     :     0.002406
      f0      :     0.000472  f :     0.002132
      f+1     :     0.000171
      f-1     :     0.000171
      f+2     :     0.000660
      f-2     :     0.000660
      f+3     :     0.000000
      f-3     :     0.000000


                     *******************************
                     * LOEWDIN POPULATION ANALYSIS *
                     *******************************

-------------------------------------------
LOEWDIN ATOMIC CHARGES AND SPIN POPULATIONS
-------------------------------------------
   0 Ti:   -0.292470    2.954669
   1 Br:    0.292470    0.045331

----------------------------------------------------
LOEWDIN REDUCED ORBITAL CHARGES AND SPIN POPULATIONS
----------------------------------------------------
CHARGE
  0 Tis       :     6.513327  s :     6.513327
      pz      :     4.169418  p :    12.235626
      px      :     4.033104
      py      :     4.033104
      dz2     :     0.758293  d :     3.099575
      dxz     :     0.184016
      dyz     :     0.184016
      dx2y2   :     0.986625
      dxy     :     0.986625
      f0      :     0.125761  f :     0.320038
      f+1     :     0.096244
      f-1     :     0.096244
      f+2     :     0.000895
      f-2     :     0.000895
      f+3     :     0.000000
      f-3     :     0.000000
      g0      :     0.039348  g :     0.123904
      g+1     :     0.042063
      g-1     :     0.042063
      g+2     :     0.000215
      g-2     :     0.000215
      g+3     :     0.000000
      g-3     :     0.000000
      g+4     :     0.000000
      g-4     :     0.000000
  1 Brs       :     7.544981  s :     7.544981
      pz      :     5.685111  p :    16.920893
      px      :     5.617891
      py      :     5.617891
      dz2     :     2.115882  d :    10.166240
      dxz     :     2.017580
      dyz     :     2.017580
      dx2y2   :     2.007599
      dxy     :     2.007599
      f0      :     0.047880  f :     0.075416
      f+1     :     0.009102
      f-1     :     0.009102
      f+2     :     0.004666
      f-2     :     0.004666
      f+3     :     0.000000
      f-3     :     0.000000

SPIN
  0 Tis       :     0.493782  s :     0.493782
      pz      :     0.013360  p :     0.022539
      px      :     0.004590
      py      :     0.004590
      dz2     :     0.440198  d :     2.448049
      dxz     :     0.017302
      dyz     :     0.017302
      dx2y2   :     0.986623
      dxy     :     0.986623
      f0      :    -0.000890  f :    -0.006272
      f+1     :    -0.003568
      f-1     :    -0.003568
      f+2     :     0.000877
      f-2     :     0.000877
      f+3     :    -0.000000
      f-3     :    -0.000000
      g0      :    -0.000321  g :    -0.003428
      g+1     :    -0.001712
      g-1     :    -0.001712
      g+2     :     0.000158
      g-2     :     0.000158
      g+3     :    -0.000000
      g-3     :    -0.000000
      g+4     :     0.000000
      g-4     :     0.000000
  1 Brs       :     0.023713  s :     0.023713
      pz      :     0.020539  p :    -0.014020
      px      :    -0.017280
      py      :    -0.017280
      dz2     :     0.007629  d :     0.023939
      dxz     :     0.000479
      dyz     :     0.000479
      dx2y2   :     0.007676
      dxy     :     0.007676
      f0      :     0.001990  f :     0.011699
      f+1     :     0.000189
      f-1     :     0.000189
      f+2     :     0.004666
      f-2     :     0.004666
      f+3     :     0.000000
      f-3     :     0.000000


                      *****************************
                      * MAYER POPULATION ANALYSIS *
                      *****************************

  NA   - Mulliken gross atomic population
  ZA   - Total nuclear charge
  QA   - Mulliken gross atomic charge
  VA   - Mayer's total valence
  BVA  - Mayer's bonded valence
  FA   - Mayer's free valence

  ATOM       NA         ZA         QA         VA         BVA        FA
  0 Ti    21.6749    22.0000     0.3251     4.1874     1.3117     2.8757
  1 Br    35.3251    35.0000    -0.3251     1.3175     1.3117     0.0058

  Mayer bond orders larger than 0.100000
B(  0-Ti,  1-Br) :   1.3117 

-------
TIMINGS
-------

Total SCF time: 0 days 0 hours 0 min 3 sec 

Total time                  ....       3.373 sec
Sum of individual times     ....       3.212 sec  ( 95.2%)

Fock matrix formation       ....       2.771 sec  ( 82.2%)
  Split-RI-J                ....       2.056 sec  ( 74.2% of F)
  XC integration            ....       0.581 sec  ( 21.0% of F)
    Basis function eval.    ....       0.101 sec  ( 17.3% of XC)
    Density eval.           ....       0.122 sec  ( 20.9% of XC)
    XC-Functional eval.     ....       0.022 sec  (  3.8% of XC)
    XC-Potential eval.      ....       0.237 sec  ( 40.7% of XC)
Diagonalization             ....       0.066 sec  (  1.9%)
Density matrix formation    ....       0.009 sec  (  0.3%)
Population analysis         ....       0.007 sec  (  0.2%)
Initial guess               ....       0.131 sec  (  3.9%)
Orbital Transformation      ....       0.000 sec  (  0.0%)
Orbital Orthonormalization  ....       0.000 sec  (  0.0%)
DIIS solution               ....       0.023 sec  (  0.7%)
Grid generation             ....       0.205 sec  (  6.1%)


-------------------------------------------------------------------------------
                          DFT DISPERSION CORRECTION                            
                                                                               
                              DFTD3 V3.1  Rev 1                                
                          USING Becke-Johnson damping                          
-------------------------------------------------------------------------------
The TPSS functional is recognized
Active option DFTDOPT                   ...         4   

molecular C6(AA) [au] = 1175.723241 


            DFT-D V3
 parameters
 s6 scaling factor         :     1.0000 
 a1 scaling factor         :     0.4535 
 s8 scaling factor         :     1.9435 
 a2 scaling factor         :     4.4752 
 ad hoc parameters k1-k3   :    16.0000     1.3333    -4.0000 

 Edisp/kcal,au: -1.224087525485  -0.001950707432 
 E6   /kcal   :  -0.375605746 
 E8   /kcal   :  -0.848481780 
 % E8         :  69.315450268 

-------------------------   ----------------
Dispersion correction           -0.001950707
-------------------------   ----------------


-------------------------   --------------------
FINAL SINGLE POINT ENERGY     -3423.604461832545
-------------------------   --------------------


                            ***************************************
                            *     ORCA property calculations      *
                            ***************************************

                                    ---------------------
                                    Active property flags
                                    ---------------------
   (+) Dipole Moment


------------------------------------------------------------------------------
                       ORCA ELECTRIC PROPERTIES CALCULATION
------------------------------------------------------------------------------

Dipole Moment Calculation                       ... on
Quadrupole Moment Calculation                   ... off
Polarizability Calculation                      ... off
GBWName                                         ... 10_TiBr.gbw
Electron density file                           ... 10_TiBr.scfp
The origin for moment calculation is the CENTER OF MASS  = ( 0.000000,  0.000000  2.459298)

-------------
DIPOLE MOMENT
-------------
                                X             Y             Z
Electronic contribution:      0.00000       0.00000       0.97363
Nuclear contribution   :      0.00000       0.00000      -2.89414
                        -----------------------------------------
Total Dipole Moment    :      0.00000       0.00000      -1.92051
                        -----------------------------------------
Magnitude (a.u.)       :      1.92051
Magnitude (Debye)      :      4.88154



--------------------
Rotational spectrum 
--------------------
 
Rotational constants in cm-1:     0.000000     0.097124     0.097124 
Rotational constants in MHz :     0.000000  2911.693161  2911.693161 

 Dipole components along the rotational axes: 
x,y,z [a.u.] :    -1.920505     0.000000     0.000000 
x,y,z [Debye]:    -4.881536     0.000000     0.000000 

 

Timings for individual modules:

Sum of individual times         ...        8.793 sec (=   0.147 min)
GTO integral calculation        ...        5.088 sec (=   0.085 min)  57.9 %
SCF iterations                  ...        3.705 sec (=   0.062 min)  42.1 %
                             ****ORCA TERMINATED NORMALLY****
TOTAL RUN TIME: 0 days 0 hours 0 minutes 9 seconds 379 msec
