
                                 *****************
                                 * O   R   C   A *
                                 *****************

           --- An Ab Initio, DFT and Semiempirical electronic structure package ---

                  #######################################################
                  #                        -***-                        #
                  #          Department of theory and spectroscopy      #
                  #               Directorship: Frank Neese             #
                  #        Max Planck Institute fuer Kohlenforschung    #
                  #                Kaiser Wilhelm Platz 1               #
                  #                 D-45470 Muelheim/Ruhr               #
                  #                      Germany                        #
                  #                                                     #
                  #                  All rights reserved                #
                  #                        -***-                        #
                  #######################################################


                         Program Version 4.2.0 -  RELEASE  -


 With contributions from (in alphabetic order):
   Daniel Aravena         : Magnetic Suceptibility
   Michael Atanasov       : Ab Initio Ligand Field Theory (pilot matlab implementation)
   Alexander A. Auer      : GIAO ZORA, VPT2
   Ute Becker             : Parallelization
   Giovanni Bistoni       : ED, misc. LED, open-shell LED, HFLED
   Martin Brehm           : Molecular dynamics
   Dmytro Bykov           : SCF Hessian
   Vijay G. Chilkuri      : MRCI spin determinant printing, contributions to CSF-ICE
   Dipayan Datta          : RHF DLPNO-CCSD density
   Achintya Kumar Dutta   : EOM-CC, STEOM-CC
   Dmitry Ganyushin       : Spin-Orbit,Spin-Spin,Magnetic field MRCI
   Miquel Garcia          : C-PCM Hessian, Gaussian charge scheme
   Yang Guo               : DLPNO-NEVPT2, CIM, IAO-localization
   Andreas Hansen         : Spin unrestricted coupled pair/coupled cluster methods
   Benjamin Helmich-Paris : CASSCF linear response (MC-RPA)
   Lee Huntington         : MR-EOM, pCC
   Robert Izsak           : Overlap fitted RIJCOSX, COSX-SCS-MP3, EOM
   Christian Kollmar      : KDIIS, OOCD, Brueckner-CCSD(T), CCSD density
   Simone Kossmann        : Meta GGA functionals, TD-DFT gradient, OOMP2, MP2 Hessian
   Martin Krupicka        : AUTO-CI
   Lucas Lang             : DCDCAS
   Dagmar Lenk            : GEPOL surface, SMD
   Dimitrios Liakos       : Extrapolation schemes; Compound Job, initial MDCI parallelization
   Dimitrios Manganas     : Further ROCIS development; embedding schemes
   Dimitrios Pantazis     : SARC Basis sets
   Taras Petrenko         : DFT Hessian,TD-DFT gradient, ASA, ECA, R-Raman, ABS, FL, XAS/XES, NRVS
   Peter Pinski           : DLPNO-MP2, DLPNO-MP2 Gradient
   Christoph Reimann      : Effective Core Potentials
   Marius Retegan         : Local ZFS, SOC
   Christoph Riplinger    : Optimizer, TS searches, QM/MM, DLPNO-CCSD(T), (RO)-DLPNO pert. Triples
   Tobias Risthaus        : Range-separated hybrids, TD-DFT gradient, RPA, STAB
   Michael Roemelt        : Original ROCIS implementation
   Masaaki Saitow         : Open-shell DLPNO-CCSD energy and density
   Barbara Sandhoefer     : DKH picture change effects
   Avijit Sen             : IP-ROCIS
   Kantharuban Sivalingam : CASSCF convergence, NEVPT2, FIC-MRCI
   Bernardo de Souza      : ESD, SOC TD-DFT
   Georgi Stoychev        : AutoAux, RI-MP2 NMR
   Willem Van den Heuvel  : Paramagnetic NMR
   Boris Wezisla          : Elementary symmetry handling
   Frank Wennmohs         : Technical directorship


 We gratefully acknowledge several colleagues who have allowed us to
 interface, adapt or use parts of their codes:
   Stefan Grimme, W. Hujo, H. Kruse,             : VdW corrections, initial TS optimization,
                  C. Bannwarth                     DFT functionals, gCP, sTDA/sTD-DF
   Ed Valeev, F. Pavosevic, A. Kumar             : LibInt (2-el integral package), F12 methods
   Garnet Chan, S. Sharma, J. Yang, R. Olivares  : DMRG
   Ulf Ekstrom                                   : XCFun DFT Library
   Mihaly Kallay                                 : mrcc  (arbitrary order and MRCC methods)
   Andreas Klamt, Michael Diedenhofen            : otool_cosmo (COSMO solvation model)
   Jiri Pittner, Ondrej Demel                    : Mk-CCSD
   Frank Weinhold                                : gennbo (NPA and NBO analysis)
   Christopher J. Cramer and Donald G. Truhlar   : smd solvation model
   Lars Goerigk                                  : TD-DFT with DH, B97 family of functionals
   V. Asgeirsson, H. Jonsson                     : NEB implementation
   FAccTs GmbH                                   : IRC, NEB, NEB-TS, Multilevel, MM, QM/MM, CI optimization
   S Lehtola, MJT Oliveira, MAL Marques          : LibXC Library


 Your calculation uses the libint2 library for the computation of 2-el integrals
 For citations please refer to: http://libint.valeyev.net

 Your ORCA version has been built with support for libXC version: 4.2.3
 For citations please refer to: https://tddft.org/programs/libxc/

 This ORCA versions uses:
   CBLAS   interface :  Fast vector & matrix operations
   LAPACKE interface :  Fast linear algebra routines
   SCALAPACK package :  Parallel linear algebra routines


Your calculation utilizes the atom-pairwise dispersion correction
with the Becke-Johnson damping scheme (D3BJ)
Cite in your paper:
S.Grimme, S.Ehrlich, L.Goerigk, J Comput Chem, (2011), 32, 1456–1465 
S.Grimme, J.Antony, S.Ehrlich and H.Krieg, J.Chem.Phys., 132, (2010), 154104 
   

----- Orbital basis set information -----
Your calculation utilizes the basis: aug-cc-pVTZ 
    H, B-Ne : Obtained from the ccRepo (grant-hill.group.shef.ac.uk/ccrepo) Feb. 2017
              R. A. Kendall, T. H. Dunning, Jr., R. J. Harrison, J. Chem. Phys. 96, 6796 (1992)
         He : Obtained from the ccRepo (grant-hill.group.shef.ac.uk/ccrepo) Feb. 2017
              D. E. Woon, T. H. Dunning, Jr., J. Chem. Phys. 100, 2975 (1994)
  Li-Be, Na : Obtained from the ccRepo (grant-hill.group.shef.ac.uk/ccrepo) Feb. 2017
              B. P. Prascher, D. E. Woon, K. A. Peterson, T. H. Dunning, Jr., A. K. Wilson, Theor. Chem. Acc. 128, 69 (2011)
         Mg : Obtained from the Peterson Research Group Website (tyr0.chem.wsu.edu/~kipeters) Feb. 2017
              B. P. Prascher, D. E. Woon, K. A. Peterson, T. H. Dunning, Jr., A. K. Wilson, Theor. Chem. Acc. 128, 69 (2011)
      Al-Ar : Obtained from the ccRepo (grant-hill.group.shef.ac.uk/ccrepo) Feb. 2017
              D. E. Woon, T. H. Dunning, Jr., J. Chem. Phys. 98, 1358 (1993)
      Sc-Zn : Obtained from the ccRepo (grant-hill.group.shef.ac.uk/ccrepo) Feb. 2017
              N. B. Balabanov, K. A. Peterson, J. Chem. Phys. 123, 064107 (2005)
              N. B. Balabanov, K. A. Peterson, J. Chem. Phys. 125, 074110 (2006)
      Ga-Kr : Obtained from the ccRepo (grant-hill.group.shef.ac.uk/ccrepo) Feb. 2017
              A. K. Wilson, D. E. Woon, K. A. Peterson, T. H. Dunning, Jr., J. Chem. Phys. 110, 7667 (1999)
     Ag, Au : Obtained from the Peterson Research Group Website (tyr0.chem.wsu.edu/~kipeters) Feb. 2017
              K. A. Peterson, C. Puzzarini, Theor. Chem. Acc. 114, 283 (2005)

----- AuxJ basis set information -----
Your calculation utilizes the auxiliary basis: def2/J
   F. Weigend, Phys. Chem. Chem. Phys. 8, 1057 (2006).

================================================================================
                                        WARNINGS
                       Please study these warnings very carefully!
================================================================================


WARNING: your system is open-shell and RHF/RKS was chosen
  ===> : WILL SWITCH to UHF/UKS


INFO   : the flag for use of LIBINT has been found!

================================================================================
                                       INPUT FILE
================================================================================
NAME = 11_TiO.in
|  1> #
|  2> # 11_TiO tpss/aug-cc-pvtz
|  3> #
|  4> ! tpss d3bj aug-cc-pvtz def2/j grid4 nofinalgrid
|  5> 
|  6> *xyz 0 3
|  7>   Ti  0.00000000000000      0.00000000000000      0.18878211244980
|  8>   O   0.00000000000000      0.00000000000000      1.81121788755020
|  9> *
| 10> 
| 11> %pal
| 12> nprocs 24
| 13> end
| 14> 
| 15> 
| 16>                          ****END OF INPUT****
================================================================================

                       ****************************
                       * Single Point Calculation *
                       ****************************

---------------------------------
CARTESIAN COORDINATES (ANGSTROEM)
---------------------------------
  Ti     0.000000    0.000000    0.188782
  O      0.000000    0.000000    1.811218

----------------------------
CARTESIAN COORDINATES (A.U.)
----------------------------
  NO LB      ZA    FRAG     MASS         X           Y           Z
   0 Ti   22.0000    0    47.900    0.000000    0.000000    0.356746
   1 O     8.0000    0    15.999    0.000000    0.000000    3.422706

--------------------------------
INTERNAL COORDINATES (ANGSTROEM)
--------------------------------
 Ti     0   0   0     0.000000000000     0.00000000     0.00000000
 O      1   0   0     1.622435775100     0.00000000     0.00000000

---------------------------
INTERNAL COORDINATES (A.U.)
---------------------------
 Ti     0   0   0     0.000000000000     0.00000000     0.00000000
 O      1   0   0     3.065959284816     0.00000000     0.00000000

---------------------
BASIS SET INFORMATION
---------------------
There are 2 groups of distinct atoms

 Group   1 Type Ti  : 116s77p23d3f2g contracted to 8s7p5d3f2g pattern {19191919191911/151515151511/77711/111/11}
 Group   2 Type O   : 19s6p3d2f contracted to 5s4p3d2f pattern {88111/3111/111/11}

Atom   0Ti   basis set group =>   1
Atom   1O    basis set group =>   2
---------------------------------
AUXILIARY/J BASIS SET INFORMATION
---------------------------------
There are 2 groups of distinct atoms

 Group   1 Type Ti  : 19s5p5d3f3g contracted to 8s5p5d2f3g pattern {121111111/11111/11111/21/111}
 Group   2 Type O   : 12s5p4d2f1g contracted to 6s4p3d1f1g pattern {711111/2111/211/2/1}

Atom   0Ti   basis set group =>   1
Atom   1O    basis set group =>   2


           ************************************************************
           *        Program running with 24 parallel MPI-processes    *
           *              working on a common directory               *
           ************************************************************
------------------------------------------------------------------------------
                           ORCA GTO INTEGRAL CALCULATION
                           -- RI-GTO INTEGRALS CHOSEN --
------------------------------------------------------------------------------

                         BASIS SET STATISTICS AND STARTUP INFO

Gaussian basis set:
 # of primitive gaussian shells          ...  251
 # of primitive gaussian functions       ...  567
 # of contracted shells                  ...   39
 # of contracted basis functions         ...  139
 Highest angular momentum                ...    4
 Maximum contraction depth               ...   19
Auxiliary gaussian basis set:
 # of primitive gaussian shells          ...   59
 # of primitive gaussian functions       ...  177
 # of contracted shells                  ...   38
 # of contracted aux-basis functions     ...  138
 Highest angular momentum                ...    4
 Maximum contraction depth               ...   12
Ratio of auxiliary to basis functions    ...  0.99
Integral package used                  ... LIBINT
 One Electron integrals                  ... done
 Ordering auxiliary basis shells         ... done
 Integral threshhold             Thresh  ...  1.000e-10
 Primitive cut-off               TCut    ...  1.000e-11
 Pre-screening matrix                    ... done
 Shell pair data                         ... 
 Ordering of the shell pairs             ... done (   0.000 sec) 780 of 780 pairs
 Determination of significant pairs      ... done (   0.000 sec)
 Creation of shell pair data             ... done (   0.001 sec)
 Storage of shell pair data              ... done (   0.082 sec)
 Shell pair data done in (   0.083 sec)
 Computing two index integrals           ... done
 Cholesky decomposition of the V-matrix  ... done


Timings:
 Total evaluation time                   ...   2.753 sec (  0.046 min)
 One electron matrix time                ...   0.044 sec (  0.001 min) =  1.6%
 Schwartz matrix evaluation time         ...   2.594 sec (  0.043 min) = 94.2%
 Two index repulsion integral time       ...   0.002 sec (  0.000 min) =  0.1%
 Cholesky decomposition of V             ...   0.001 sec (  0.000 min) =  0.0%
 Three index repulsion integral time     ...   0.000 sec (  0.000 min) =  0.0%



           ************************************************************
           *        Program running with 24 parallel MPI-processes    *
           *              working on a common directory               *
           ************************************************************
-------------------------------------------------------------------------------
                                 ORCA SCF
-------------------------------------------------------------------------------

------------
SCF SETTINGS
------------
Hamiltonian:
 Density Functional     Method          .... DFT(GTOs)
 Exchange Functional    Exchange        .... TPSS
 Correlation Functional Correlation     .... TPSS
 LDA part of GGA corr.  LDAOpt          .... PW91-LDA
 Gradients option       PostSCFGGA      .... off
   Density functional embedding theory  .... OFF
   NL short-range parameter             ....  5.000000
 RI-approximation to the Coulomb term is turned on
   Number of auxiliary basis functions  .... 138


General Settings:
 Integral files         IntName         .... 11_TiO
 Hartree-Fock type      HFTyp           .... UHF
 Total Charge           Charge          ....    0
 Multiplicity           Mult            ....    3
 Number of Electrons    NEL             ....   30
 Basis Dimension        Dim             ....  139
 Nuclear Repulsion      ENuc            ....     57.4045457393 Eh

Convergence Acceleration:
 DIIS                   CNVDIIS         .... on
   Start iteration      DIISMaxIt       ....    12
   Startup error        DIISStart       ....  0.200000
   # of expansion vecs  DIISMaxEq       ....     5
   Bias factor          DIISBfac        ....   1.050
   Max. coefficient     DIISMaxC        ....  10.000
 Newton-Raphson         CNVNR           .... off
 SOSCF                  CNVSOSCF        .... off
 Level Shifting         CNVShift        .... on
   Level shift para.    LevelShift      ....    0.2500
   Turn off err/grad.   ShiftErr        ....    0.0010
 Zerner damping         CNVZerner       .... off
 Static damping         CNVDamp         .... on
   Fraction old density DampFac         ....    0.7000
   Max. Damping (<1)    DampMax         ....    0.9800
   Min. Damping (>=0)   DampMin         ....    0.0000
   Turn off err/grad.   DampErr         ....    0.1000
 Fernandez-Rico         CNVRico         .... off

SCF Procedure:
 Maximum # iterations   MaxIter         ....   125
 SCF integral mode      SCFMode         .... Direct
   Integral package                     .... LIBINT
 Reset frequency        DirectResetFreq ....    20
 Integral Threshold     Thresh          ....  1.000e-10 Eh
 Primitive CutOff       TCut            ....  1.000e-11 Eh

Convergence Tolerance:
 Convergence Check Mode ConvCheckMode   .... Total+1el-Energy
 Convergence forced     ConvForced      .... 0
 Energy Change          TolE            ....  1.000e-06 Eh
 1-El. energy change                    ....  1.000e-03 Eh
 DIIS Error             TolErr          ....  1.000e-06


Diagonalization of the overlap matrix:
Smallest eigenvalue                        ... 3.668e-05
Time for diagonalization                   ...    0.005 sec
Threshold for overlap eigenvalues          ... 1.000e-08
Number of eigenvalues below threshold      ... 0
Time for construction of square roots      ...    0.003 sec
Total time needed                          ...    0.009 sec

-------------------
DFT GRID GENERATION
-------------------

General Integration Accuracy     IntAcc      ...  4.670
Radial Grid Type                 RadialGrid  ... Gauss-Chebyshev
Angular Grid (max. acc.)         AngularGrid ... Lebedev-302
Angular grid pruning method      GridPruning ... 3 (G Style)
Weight generation scheme         WeightScheme... Becke
Basis function cutoff            BFCut       ...    1.0000e-10
Integration weight cutoff        WCut        ...    1.0000e-14
Grids for H and He will be reduced by one unit

# of grid points (after initial pruning)     ...  15876 (   0.0 sec)
# of grid points (after weights+screening)   ...  15834 (   0.0 sec)
nearest neighbour list constructed           ...    0.0 sec
Grid point re-assignment to atoms done       ...    0.0 sec
Grid point division into batches done        ...    0.1 sec
Reduced shell lists constructed in    0.1 sec

Total number of grid points                  ...    15834
Total number of batches                      ...      248
Average number of points per batch           ...       63
Average number of grid points per atom       ...     7917
Average number of shells per batch           ...    18.33 (47.01%)
Average number of basis functions per batch  ...    51.33 (36.93%)
Average number of large shells per batch     ...    12.25 (66.82%)
Average number of large basis fcns per batch ...    35.42 (68.99%)
Maximum spatial batch extension              ...  28.57, 31.41, 18.19 au
Average spatial batch extension              ...   0.89,  0.95,  0.67 au

Time for grid setup =    0.167 sec

------------------------------
INITIAL GUESS: MODEL POTENTIAL
------------------------------
Loading Hartree-Fock densities                     ... done
Calculating cut-offs                               ... done
Setting up the integral package                    ... done
Initializing the effective Hamiltonian             ... done
Starting the Coulomb interaction                   ... done (   0.0 sec)
Reading the grid                                   ... done
Mapping shells                                     ... done
Starting the XC term evaluation                    ... done (   0.0 sec)
  promolecular density results
     # of electrons  =     30.000008236
     EX              =    -48.940544358
     EC              =     -1.158438080
     EX+EC           =    -50.098982438
Transforming the Hamiltonian                       ... done (   0.0 sec)
Diagonalizing the Hamiltonian                      ... done (   0.0 sec)
Back transforming the eigenvectors                 ... done (   0.0 sec)
Now organizing SCF variables                       ... done
                      ------------------
                      INITIAL GUESS DONE (   0.3 sec)
                      ------------------
--------------
SCF ITERATIONS
--------------
ITER       Energy         Delta-E        Max-DP      RMS-DP      [F,P]     Damp
               ***  Starting incremental Fock matrix formation  ***
  0   -924.4227730191   0.000000000000 0.13654490  0.00332465  0.5008485 0.7000
  1   -924.5414762523  -0.118703233179 0.15915651  0.00289527  0.1190480 0.7000
                               ***Turning on DIIS***
  2   -924.5893267853  -0.047850532973 0.18577692  0.00353898  0.0987320 0.0000
  3   -924.6152170025  -0.025890217188 0.05817871  0.00116165  0.2393926 0.7000
  4   -924.6412958897  -0.026078887277 0.04185572  0.00086668  0.2088039 0.7000
  5   -924.6646274729  -0.023331583214 0.02639809  0.00053407  0.1752925 0.7000
  6   -924.6817779645  -0.017150491560 0.01442994  0.00031061  0.1437659 0.7000
  7   -924.6936578092  -0.011879844688 0.01302114  0.00026426  0.1156367 0.7000
  8   -924.7045841648  -0.010926355638 0.04417985  0.00103942  0.0738172 0.0000
  9   -924.7157477956  -0.011163630765 0.01314051  0.00025857  0.0235900 0.0000
 10   -924.7163294384  -0.000581642788 0.00477749  0.00008951  0.0120738 0.0000
 11   -924.7165085267  -0.000179088269 0.00215106  0.00004135  0.0053223 0.0000
 12   -924.7165457824  -0.000037255718 0.00208321  0.00003625  0.0019606 0.0000
 13   -924.7165528780  -0.000007095657 0.91521108  0.00565842  0.0007439 0.0000
 14   -924.7293578547  -0.012804976698 0.00016978  0.00000266  0.1230381 0.7000
 15   -924.7293192187   0.000038635984 0.00015741  0.00000207  0.1231114 0.7000
 16   -924.7292820315   0.000037187199 0.00009193  0.00000164  0.1231730 0.7000
 17   -924.7292241773   0.000057854201 0.00020731  0.00000376  0.1232406 0.7000
 18   -924.7292030464   0.000021130957 0.20498069  0.00385110  0.1232270 0.7000
 19   -924.7468127199  -0.017609673521 0.10282813  0.00211567  0.0514423 0.0000
               *** Restarting incremental Fock matrix formation ***
                                   *** Resetting DIIS ***
 20   -924.7518633217  -0.005050601777 0.35618111  0.00737609  0.0842905 0.0000
 21   -924.7254464038   0.026416917906 0.05845788  0.00116629  0.1705099 0.7000
 22   -924.7414564040  -0.016010000268 0.04777010  0.00097858  0.1270452 0.7000
 23   -924.7539555697  -0.012499165666 0.13876282  0.00287875  0.0859651 0.0000
 24   -924.7689805236  -0.015024953901 0.00710988  0.00014565  0.0169392 0.0000
 25   -924.7693584108  -0.000377887205 0.01418008  0.00016757  0.0018404 0.0000
 26   -924.7693765657  -0.000018154891 0.00386247  0.00003823  0.0016426 0.0000
 27   -924.7693833558  -0.000006790142 0.00721701  0.00005880  0.0006570 0.0000
 28   -924.7693859859  -0.000002630010 0.00348601  0.00002965  0.0002210 0.0000
 29   -924.7693859373   0.000000048518 0.00041813  0.00000834  0.0001619 0.0000
 30   -924.7693861378  -0.000000200476 0.00057092  0.00000505  0.0000728 0.0000
                 **** Energy Check signals convergence ****

               *****************************************************
               *                     SUCCESS                       *
               *           SCF CONVERGED AFTER  31 CYCLES          *
               *****************************************************


----------------
TOTAL SCF ENERGY
----------------

Total Energy       :         -924.76938603 Eh          -25164.25432 eV

Components:
Nuclear Repulsion  :           57.40454574 Eh            1562.05710 eV
Electronic Energy  :         -982.17393177 Eh          -26726.31142 eV
One Electron Energy:        -1382.75601271 Eh          -37626.70401 eV
Two Electron Energy:          400.58208094 Eh           10900.39259 eV

Virial components:
Potential Energy   :        -1847.80235851 Eh          -50281.25842 eV
Kinetic Energy     :          923.03297248 Eh           25117.00411 eV
Virial Ratio       :            2.00188120


DFT components:
N(Alpha)           :       15.999995269343 electrons
N(Beta)            :       13.999995254689 electrons
N(Total)           :       29.999990524032 electrons
E(X)               :      -49.543596267665 Eh       
E(C)               :       -1.170786044165 Eh       
E(XC)              :      -50.714382311831 Eh       
DFET-embed. en.    :        0.000000000000 Eh       

---------------
SCF CONVERGENCE
---------------

  Last Energy change         ...    1.0957e-07  Tolerance :   1.0000e-06
  Last MAX-Density change    ...    1.8818e-04  Tolerance :   1.0000e-05
  Last RMS-Density change    ...    1.6246e-06  Tolerance :   1.0000e-06
  Last DIIS Error            ...    1.9068e-05  Tolerance :   1.0000e-06

             **** THE GBW FILE WAS UPDATED (11_TiO.gbw) ****
             **** DENSITY FILE WAS UPDATED (11_TiO.scfp) ****
             **** ENERGY FILE WAS UPDATED (11_TiO.en.tmp) ****
----------------------
UHF SPIN CONTAMINATION
----------------------

Warning: in a DFT calculation there is little theoretical justification to 
         calculate <S**2> as in Hartree-Fock theory. We will do it anyways
         but you should keep in mind that the values have only limited relevance

Expectation value of <S**2>     :     2.011535
Ideal value S*(S+1) for S=1.0   :     2.000000
Deviation                       :     0.011535

             **** THE GBW FILE WAS UPDATED (11_TiO.gbw) ****
             **** DENSITY FILE WAS UPDATED (11_TiO.scfp) ****
----------------
ORBITAL ENERGIES
----------------
                 SPIN UP ORBITALS
  NO   OCC          E(Eh)            E(eV) 
   0   1.0000    -178.145492     -4847.5853 
   1   1.0000     -19.547777      -531.9220 
   2   1.0000     -18.859745      -513.1997 
   3   1.0000     -16.276451      -442.9047 
   4   1.0000     -16.276451      -442.9047 
   5   1.0000     -16.276116      -442.8956 
   6   1.0000      -2.261091       -61.5274 
   7   1.0000      -1.412452       -38.4348 
   8   1.0000      -1.401933       -38.1485 
   9   1.0000      -1.401933       -38.1485 
  10   1.0000      -0.791385       -21.5347 
  11   1.0000      -0.279913        -7.6168 
  12   1.0000      -0.278178        -7.5696 
  13   1.0000      -0.278178        -7.5696 
  14   1.0000      -0.164160        -4.4670 
  15   1.0000      -0.158808        -4.3214 
  16   0.0000      -0.109262        -2.9732 
  17   0.0000      -0.092531        -2.5179 
  18   0.0000      -0.092531        -2.5179 
  19   0.0000      -0.066963        -1.8222 
  20   0.0000      -0.018797        -0.5115 
  21   0.0000      -0.018797        -0.5115 
  22   0.0000      -0.001169        -0.0318 
  23   0.0000       0.007549         0.2054 
  24   0.0000       0.023676         0.6442 
  25   0.0000       0.023676         0.6442 
  26   0.0000       0.025451         0.6926 
  27   0.0000       0.027360         0.7445 
  28   0.0000       0.031807         0.8655 
  29   0.0000       0.031807         0.8655 
  30   0.0000       0.035880         0.9763 
  31   0.0000       0.062476         1.7001 
  32   0.0000       0.081180         2.2090 
  33   0.0000       0.114529         3.1165 
  34   0.0000       0.114862         3.1256 
  35   0.0000       0.114862         3.1256 
  36   0.0000       0.122987         3.3467 
  37   0.0000       0.130241         3.5440 
  38   0.0000       0.132376         3.6021 
  39   0.0000       0.132376         3.6021 
  40   0.0000       0.182289         4.9603 
  41   0.0000       0.182289         4.9603 
  42   0.0000       0.186782         5.0826 
  43   0.0000       0.208845         5.6830 
  44   0.0000       0.225222         6.1286 
  45   0.0000       0.227445         6.1891 
  46   0.0000       0.227445         6.1891 
  47   0.0000       0.229989         6.2583 
  48   0.0000       0.319301         8.6886 
  49   0.0000       0.322064         8.7638 
  50   0.0000       0.322064         8.7638 
  51   0.0000       0.356261         9.6944 
  52   0.0000       0.458371        12.4729 
  53   0.0000       0.470266        12.7966 
  54   0.0000       0.493915        13.4401 
  55   0.0000       0.493916        13.4401 
  56   0.0000       0.494797        13.4641 
  57   0.0000       0.516678        14.0595 
  58   0.0000       0.516678        14.0595 
  59   0.0000       0.602138        16.3850 
  60   0.0000       0.656525        17.8649 
  61   0.0000       0.661242        17.9933 
  62   0.0000       0.704058        19.1584 
  63   0.0000       0.704058        19.1584 
  64   0.0000       0.721738        19.6395 
  65   0.0000       0.853550        23.2263 
  66   0.0000       0.860250        23.4086 
  67   0.0000       0.860250        23.4086 
  68   0.0000       0.862072        23.4582 
  69   0.0000       0.865185        23.5429 
  70   0.0000       0.870866        23.6975 
  71   0.0000       0.874301        23.7909 
  72   0.0000       0.874301        23.7909 
  73   0.0000       0.883422        24.0391 
  74   0.0000       0.885407        24.0932 
  75   0.0000       0.885407        24.0932 
  76   0.0000       0.967564        26.3288 
  77   0.0000       1.077553        29.3217 
  78   0.0000       1.088715        29.6254 
  79   0.0000       1.091491        29.7010 
  80   0.0000       1.091491        29.7010 
  81   0.0000       1.241094        33.7719 
  82   0.0000       1.343993        36.5719 
  83   0.0000       1.343993        36.5719 
  84   0.0000       1.758902        47.8622 
  85   0.0000       1.795648        48.8621 
  86   0.0000       1.813598        49.3505 
  87   0.0000       1.813598        49.3505 
  88   0.0000       1.883206        51.2446 
  89   0.0000       1.883206        51.2446 
  90   0.0000       1.935320        52.6627 
  91   0.0000       1.945035        52.9271 
  92   0.0000       1.945768        52.9470 
  93   0.0000       1.965203        53.4759 
  94   0.0000       1.965203        53.4759 
  95   0.0000       2.002943        54.5028 
  96   0.0000       2.035138        55.3789 
  97   0.0000       2.058466        56.0137 
  98   0.0000       2.176981        59.2387 
  99   0.0000       2.176981        59.2387 
 100   0.0000       2.190720        59.6125 
 101   0.0000       2.341468        63.7146 
 102   0.0000       2.348420        63.9038 
 103   0.0000       2.624415        71.4140 
 104   0.0000       2.830154        77.0124 
 105   0.0000       2.830154        77.0124 
 106   0.0000       3.181703        86.5785 
 107   0.0000       3.185052        86.6697 
 108   0.0000       3.189794        86.7987 
 109   0.0000       3.194053        86.9146 
 110   0.0000       3.194053        86.9146 
 111   0.0000       3.367036        91.6217 
 112   0.0000       3.367036        91.6217 
 113   0.0000       3.367173        91.6254 
 114   0.0000       3.382513        92.0428 
 115   0.0000       3.395056        92.3842 
 116   0.0000       3.415315        92.9355 
 117   0.0000       3.455302        94.0235 
 118   0.0000       3.531756        96.1040 
 119   0.0000       3.531756        96.1040 
 120   0.0000       3.712496       101.0221 
 121   0.0000       3.712496       101.0221 
 122   0.0000       3.982846       108.3788 
 123   0.0000       4.135452       112.5314 
 124   0.0000       4.135452       112.5314 
 125   0.0000       5.126053       139.4870 
 126   0.0000       6.157469       167.5532 
 127   0.0000       6.157469       167.5532 
 128   0.0000       6.340761       172.5409 
 129   0.0000       6.341048       172.5487 
 130   0.0000       6.453387       175.6056 
 131   0.0000       6.453387       175.6056 
 132   0.0000       6.585801       179.2088 
 133   0.0000       6.586066       179.2160 
 134   0.0000       6.614101       179.9788 
 135   0.0000       6.921838       188.3528 
 136   0.0000       6.921838       188.3528 
 137   0.0000       7.155511       194.7114 
 138   0.0000      11.216692       305.2217 

                 SPIN DOWN ORBITALS
  NO   OCC          E(Eh)            E(eV) 
   0   1.0000    -178.144830     -4847.5673 
   1   1.0000     -19.535971      -531.6008 
   2   1.0000     -18.863516      -513.3024 
   3   1.0000     -16.270959      -442.7553 
   4   1.0000     -16.264692      -442.5848 
   5   1.0000     -16.264692      -442.5848 
   6   1.0000      -2.223075       -60.4929 
   7   1.0000      -1.391348       -37.8605 
   8   1.0000      -1.353965       -36.8433 
   9   1.0000      -1.353965       -36.8433 
  10   1.0000      -0.797136       -21.6912 
  11   1.0000      -0.278546        -7.5796 
  12   1.0000      -0.278546        -7.5796 
  13   1.0000      -0.276919        -7.5353 
  14   0.0000      -0.110139        -2.9970 
  15   0.0000      -0.092908        -2.5282 
  16   0.0000      -0.068628        -1.8675 
  17   0.0000      -0.061265        -1.6671 
  18   0.0000      -0.061265        -1.6671 
  19   0.0000      -0.039703        -1.0804 
  20   0.0000       0.007973         0.2169 
  21   0.0000       0.007973         0.2170 
  22   0.0000       0.014772         0.4020 
  23   0.0000       0.019705         0.5362 
  24   0.0000       0.039812         1.0833 
  25   0.0000       0.039812         1.0833 
  26   0.0000       0.045291         1.2324 
  27   0.0000       0.045292         1.2324 
  28   0.0000       0.046466         1.2644 
  29   0.0000       0.046921         1.2768 
  30   0.0000       0.047964         1.3052 
  31   0.0000       0.070976         1.9314 
  32   0.0000       0.108162         2.9432 
  33   0.0000       0.136408         3.7118 
  34   0.0000       0.136408         3.7118 
  35   0.0000       0.149883         4.0785 
  36   0.0000       0.151671         4.1272 
  37   0.0000       0.154232         4.1969 
  38   0.0000       0.158714         4.3188 
  39   0.0000       0.158714         4.3188 
  40   0.0000       0.189017         5.1434 
  41   0.0000       0.189017         5.1434 
  42   0.0000       0.191785         5.2187 
  43   0.0000       0.222918         6.0659 
  44   0.0000       0.246386         6.7045 
  45   0.0000       0.247440         6.7332 
  46   0.0000       0.264432         7.1956 
  47   0.0000       0.264432         7.1956 
  48   0.0000       0.343183         9.3385 
  49   0.0000       0.343183         9.3385 
  50   0.0000       0.343513         9.3475 
  51   0.0000       0.381537        10.3821 
  52   0.0000       0.474766        12.9190 
  53   0.0000       0.517886        14.0924 
  54   0.0000       0.517886        14.0924 
  55   0.0000       0.518740        14.1156 
  56   0.0000       0.523261        14.2386 
  57   0.0000       0.551170        14.9981 
  58   0.0000       0.551170        14.9981 
  59   0.0000       0.617712        16.8088 
  60   0.0000       0.667082        18.1522 
  61   0.0000       0.667711        18.1693 
  62   0.0000       0.708010        19.2659 
  63   0.0000       0.708010        19.2659 
  64   0.0000       0.726522        19.7697 
  65   0.0000       0.882959        24.0265 
  66   0.0000       0.882959        24.0265 
  67   0.0000       0.886697        24.1282 
  68   0.0000       0.886997        24.1364 
  69   0.0000       0.887458        24.1490 
  70   0.0000       0.887458        24.1490 
  71   0.0000       0.894198        24.3324 
  72   0.0000       0.896814        24.4036 
  73   0.0000       0.898944        24.4615 
  74   0.0000       0.927810        25.2470 
  75   0.0000       0.927810        25.2470 
  76   0.0000       0.979840        26.6628 
  77   0.0000       1.096884        29.8477 
  78   0.0000       1.097467        29.8636 
  79   0.0000       1.101687        29.9784 
  80   0.0000       1.101687        29.9784 
  81   0.0000       1.247122        33.9359 
  82   0.0000       1.349911        36.7330 
  83   0.0000       1.349911        36.7330 
  84   0.0000       1.777352        48.3642 
  85   0.0000       1.809537        49.2400 
  86   0.0000       1.840429        50.0806 
  87   0.0000       1.840429        50.0806 
  88   0.0000       1.908733        51.9393 
  89   0.0000       1.908733        51.9393 
  90   0.0000       1.944216        52.9048 
  91   0.0000       1.947021        52.9811 
  92   0.0000       1.952701        53.1357 
  93   0.0000       1.963797        53.4376 
  94   0.0000       1.963797        53.4376 
  95   0.0000       2.010413        54.7061 
  96   0.0000       2.071702        56.3739 
  97   0.0000       2.084433        56.7203 
  98   0.0000       2.178651        59.2841 
  99   0.0000       2.178651        59.2841 
 100   0.0000       2.207183        60.0605 
 101   0.0000       2.351171        63.9786 
 102   0.0000       2.353987        64.0552 
 103   0.0000       2.640236        71.8445 
 104   0.0000       2.845714        77.4358 
 105   0.0000       2.845714        77.4358 
 106   0.0000       3.198443        87.0341 
 107   0.0000       3.221633        87.6651 
 108   0.0000       3.221633        87.6651 
 109   0.0000       3.228443        87.8504 
 110   0.0000       3.228496        87.8518 
 111   0.0000       3.387909        92.1897 
 112   0.0000       3.396488        92.4231 
 113   0.0000       3.414114        92.9028 
 114   0.0000       3.414114        92.9028 
 115   0.0000       3.423586        93.1605 
 116   0.0000       3.443969        93.7152 
 117   0.0000       3.470151        94.4276 
 118   0.0000       3.546676        96.5100 
 119   0.0000       3.546676        96.5100 
 120   0.0000       3.725625       101.3794 
 121   0.0000       3.725625       101.3794 
 122   0.0000       3.996093       108.7392 
 123   0.0000       4.136562       112.5616 
 124   0.0000       4.136562       112.5616 
 125   0.0000       5.126158       139.4898 
 126   0.0000       6.149964       167.3490 
 127   0.0000       6.149964       167.3490 
 128   0.0000       6.334725       172.3766 
 129   0.0000       6.334941       172.3825 
 130   0.0000       6.448986       175.4858 
 131   0.0000       6.448986       175.4858 
 132   0.0000       6.575348       178.9243 
 133   0.0000       6.575368       178.9249 
 134   0.0000       6.609685       179.8587 
 135   0.0000       6.912801       188.1069 
 136   0.0000       6.912801       188.1069 
 137   0.0000       7.149593       194.5503 
 138   0.0000      11.211973       305.0933 

                    ********************************
                    * MULLIKEN POPULATION ANALYSIS *
                    ********************************

--------------------------------------------
MULLIKEN ATOMIC CHARGES AND SPIN POPULATIONS
--------------------------------------------
   0 Ti:    0.544052    2.109144
   1 O :   -0.544052   -0.109144
Sum of atomic charges         :   -0.0000000
Sum of atomic spin populations:    2.0000000

-----------------------------------------------------
MULLIKEN REDUCED ORBITAL CHARGES AND SPIN POPULATIONS
-----------------------------------------------------
CHARGE
  0 Tis       :     6.834978  s :     6.834978
      pz      :     4.090456  p :    12.125462
      px      :     4.017503
      py      :     4.017503
      dz2     :     0.660455  d :     2.457115
      dxz     :     0.399770
      dyz     :     0.399770
      dx2y2   :     0.000001
      dxy     :     0.997118
      f0      :     0.007276  f :     0.028414
      f+1     :     0.010281
      f-1     :     0.010281
      f+2     :     0.000000
      f-2     :     0.000443
      f+3     :     0.000066
      f-3     :     0.000066
      g0      :     0.000573  g :     0.009980
      g+1     :     0.004595
      g-1     :     0.004595
      g+2     :     0.000000
      g-2     :     0.000016
      g+3     :     0.000006
      g-3     :     0.000006
      g+4     :     0.000190
      g-4     :     0.000000
  1 O s       :     3.965640  s :     3.965640
      pz      :     1.433456  p :     4.547832
      px      :     1.557188
      py      :     1.557188
      dz2     :     0.005482  d :     0.024944
      dxz     :     0.008834
      dyz     :     0.008834
      dx2y2   :     0.000000
      dxy     :     0.001793
      f0      :     0.001493  f :     0.005635
      f+1     :     0.001757
      f-1     :     0.001757
      f+2     :     0.000000
      f-2     :     0.000629
      f+3     :    -0.000000
      f-3     :    -0.000000

SPIN
  0 Tis       :     0.766979  s :     0.766979
      pz      :     0.086020  p :     0.087793
      px      :     0.000886
      py      :     0.000886
      dz2     :     0.163679  d :     1.258584
      dxz     :     0.048893
      dyz     :     0.048893
      dx2y2   :     0.000001
      dxy     :     0.997118
      f0      :    -0.000197  f :    -0.002303
      f+1     :    -0.001313
      f-1     :    -0.001313
      f+2     :     0.000000
      f-2     :     0.000443
      f+3     :     0.000038
      f-3     :     0.000038
      g0      :    -0.000069  g :    -0.001908
      g+1     :    -0.001024
      g-1     :    -0.001024
      g+2     :     0.000000
      g-2     :     0.000016
      g+3     :     0.000005
      g-3     :     0.000005
      g+4     :     0.000182
      g-4     :     0.000000
  1 O s       :     0.021561  s :     0.021561
      pz      :    -0.040505  p :    -0.137778
      px      :    -0.048637
      py      :    -0.048637
      dz2     :     0.001653  d :     0.005614
      dxz     :     0.001084
      dyz     :     0.001084
      dx2y2   :     0.000000
      dxy     :     0.001793
      f0      :     0.000695  f :     0.001459
      f+1     :     0.000067
      f-1     :     0.000067
      f+2     :     0.000000
      f-2     :     0.000629
      f+3     :    -0.000000
      f-3     :    -0.000000


                     *******************************
                     * LOEWDIN POPULATION ANALYSIS *
                     *******************************

-------------------------------------------
LOEWDIN ATOMIC CHARGES AND SPIN POPULATIONS
-------------------------------------------
   0 Ti:    0.579385    1.967006
   1 O :   -0.579385    0.032994

----------------------------------------------------
LOEWDIN REDUCED ORBITAL CHARGES AND SPIN POPULATIONS
----------------------------------------------------
CHARGE
  0 Tis       :     6.408012  s :     6.408012
      pz      :     4.127967  p :    11.939390
      px      :     3.905712
      py      :     3.905712
      dz2     :     0.811105  d :     2.656638
      dxz     :     0.439485
      dyz     :     0.439485
      dx2y2   :     0.000001
      dxy     :     0.966562
      f0      :     0.123642  f :     0.256518
      f+1     :     0.065016
      f-1     :     0.065016
      f+2     :     0.000000
      f-2     :     0.002711
      f+3     :     0.000066
      f-3     :     0.000066
      g0      :     0.064760  g :     0.160058
      g+1     :     0.047035
      g-1     :     0.047035
      g+2     :     0.000000
      g-2     :     0.001026
      g+3     :     0.000006
      g-3     :     0.000006
      g+4     :     0.000190
      g-4     :     0.000000
  1 O s       :     3.531633  s :     3.531633
      pz      :     1.644965  p :     4.502775
      px      :     1.428905
      py      :     1.428905
      dz2     :     0.206392  d :     0.381897
      dxz     :     0.077743
      dyz     :     0.077743
      dx2y2   :     0.000000
      dxy     :     0.020019
      f0      :     0.081335  f :     0.163080
      f+1     :     0.036032
      f-1     :     0.036032
      f+2     :     0.000000
      f-2     :     0.009681
      f+3     :     0.000000
      f-3     :     0.000000

SPIN
  0 Tis       :     0.696842  s :     0.696842
      pz      :     0.089883  p :     0.088684
      px      :    -0.000599
      py      :    -0.000599
      dz2     :     0.149721  d :     1.194790
      dxz     :     0.039253
      dyz     :     0.039253
      dx2y2   :     0.000001
      dxy     :     0.966562
      f0      :    -0.000870  f :    -0.007712
      f+1     :    -0.004815
      f-1     :    -0.004815
      f+2     :     0.000000
      f-2     :     0.002711
      f+3     :     0.000038
      f-3     :     0.000038
      g0      :    -0.000537  g :    -0.005598
      g+1     :    -0.003140
      g-1     :    -0.003140
      g+2     :     0.000000
      g-2     :     0.001026
      g+3     :     0.000005
      g-3     :     0.000005
      g+4     :     0.000182
      g-4     :     0.000000
  1 O s       :     0.036314  s :     0.036314
      pz      :     0.024993  p :    -0.041457
      px      :    -0.033225
      py      :    -0.033225
      dz2     :     0.001045  d :     0.025155
      dxz     :     0.002046
      dyz     :     0.002046
      dx2y2   :     0.000000
      dxy     :     0.020019
      f0      :     0.002426  f :     0.012982
      f+1     :     0.000437
      f-1     :     0.000437
      f+2     :     0.000000
      f-2     :     0.009681
      f+3     :     0.000000
      f-3     :     0.000000


                      *****************************
                      * MAYER POPULATION ANALYSIS *
                      *****************************

  NA   - Mulliken gross atomic population
  ZA   - Total nuclear charge
  QA   - Mulliken gross atomic charge
  VA   - Mayer's total valence
  BVA  - Mayer's bonded valence
  FA   - Mayer's free valence

  ATOM       NA         ZA         QA         VA         BVA        FA
  0 Ti    21.4559    22.0000     0.5441     4.2495     2.3229     1.9265
  1 O      8.5441     8.0000    -0.5441     2.3319     2.3229     0.0090

  Mayer bond orders larger than 0.100000
B(  0-Ti,  1-O ) :   2.3229 

-------
TIMINGS
-------

Total SCF time: 0 days 0 hours 0 min 7 sec 

Total time                  ....       7.106 sec
Sum of individual times     ....       6.909 sec  ( 97.2%)

Fock matrix formation       ....       6.385 sec  ( 89.9%)
  Split-RI-J                ....       4.801 sec  ( 75.2% of F)
  XC integration            ....       1.300 sec  ( 20.4% of F)
    Basis function eval.    ....       0.159 sec  ( 12.3% of XC)
    Density eval.           ....       0.192 sec  ( 14.8% of XC)
    XC-Functional eval.     ....       0.044 sec  (  3.3% of XC)
    XC-Potential eval.      ....       0.524 sec  ( 40.3% of XC)
Diagonalization             ....       0.155 sec  (  2.2%)
Density matrix formation    ....       0.020 sec  (  0.3%)
Population analysis         ....       0.007 sec  (  0.1%)
Initial guess               ....       0.117 sec  (  1.6%)
Orbital Transformation      ....       0.000 sec  (  0.0%)
Orbital Orthonormalization  ....       0.000 sec  (  0.0%)
DIIS solution               ....       0.059 sec  (  0.8%)
Grid generation             ....       0.167 sec  (  2.3%)


-------------------------------------------------------------------------------
                          DFT DISPERSION CORRECTION                            
                                                                               
                              DFTD3 V3.1  Rev 1                                
                          USING Becke-Johnson damping                          
-------------------------------------------------------------------------------
The TPSS functional is recognized
Active option DFTDOPT                   ...         4   

molecular C6(AA) [au] = 605.953368 


            DFT-D V3
 parameters
 s6 scaling factor         :     1.0000 
 a1 scaling factor         :     0.4535 
 s8 scaling factor         :     1.9435 
 a2 scaling factor         :     4.4752 
 ad hoc parameters k1-k3   :    16.0000     1.3333    -4.0000 

 Edisp/kcal,au: -0.534345113859  -0.000851533051 
 E6   /kcal   :  -0.203049350 
 E8   /kcal   :  -0.331295764 
 % E8         :  62.000335567 

-------------------------   ----------------
Dispersion correction           -0.000851533
-------------------------   ----------------


-------------------------   --------------------
FINAL SINGLE POINT ENERGY      -924.770237561294
-------------------------   --------------------


                            ***************************************
                            *     ORCA property calculations      *
                            ***************************************

                                    ---------------------
                                    Active property flags
                                    ---------------------
   (+) Dipole Moment


------------------------------------------------------------------------------
                       ORCA ELECTRIC PROPERTIES CALCULATION
------------------------------------------------------------------------------

Dipole Moment Calculation                       ... on
Quadrupole Moment Calculation                   ... off
Polarizability Calculation                      ... off
GBWName                                         ... 11_TiO.gbw
Electron density file                           ... 11_TiO.scfp
The origin for moment calculation is the CENTER OF MASS  = ( 0.000000,  0.000000  1.124400)

-------------
DIPOLE MOMENT
-------------
                                X             Y             Z
Electronic contribution:     -0.00000      -0.00000      -2.83216
Nuclear contribution   :      0.00000       0.00000       1.49807
                        -----------------------------------------
Total Dipole Moment    :     -0.00000      -0.00000      -1.33409
                        -----------------------------------------
Magnitude (a.u.)       :      1.33409
Magnitude (Debye)      :      3.39098



--------------------
Rotational spectrum 
--------------------
 
Rotational constants in cm-1:     0.000000     0.533983     0.533983 
Rotational constants in MHz :     0.000000 16008.413204 16008.413204 

 Dipole components along the rotational axes: 
x,y,z [a.u.] :    -1.334089    -0.000000    -0.000000 
x,y,z [Debye]:    -3.390984    -0.000000    -0.000000 

 

Timings for individual modules:

Sum of individual times         ...       10.712 sec (=   0.179 min)
GTO integral calculation        ...        3.266 sec (=   0.054 min)  30.5 %
SCF iterations                  ...        7.446 sec (=   0.124 min)  69.5 %
                             ****ORCA TERMINATED NORMALLY****
TOTAL RUN TIME: 0 days 0 hours 0 minutes 11 seconds 318 msec
