
                                 *****************
                                 * O   R   C   A *
                                 *****************

           --- An Ab Initio, DFT and Semiempirical electronic structure package ---

                  #######################################################
                  #                        -***-                        #
                  #          Department of theory and spectroscopy      #
                  #               Directorship: Frank Neese             #
                  #        Max Planck Institute fuer Kohlenforschung    #
                  #                Kaiser Wilhelm Platz 1               #
                  #                 D-45470 Muelheim/Ruhr               #
                  #                      Germany                        #
                  #                                                     #
                  #                  All rights reserved                #
                  #                        -***-                        #
                  #######################################################


                         Program Version 4.2.0 -  RELEASE  -


 With contributions from (in alphabetic order):
   Daniel Aravena         : Magnetic Suceptibility
   Michael Atanasov       : Ab Initio Ligand Field Theory (pilot matlab implementation)
   Alexander A. Auer      : GIAO ZORA, VPT2
   Ute Becker             : Parallelization
   Giovanni Bistoni       : ED, misc. LED, open-shell LED, HFLED
   Martin Brehm           : Molecular dynamics
   Dmytro Bykov           : SCF Hessian
   Vijay G. Chilkuri      : MRCI spin determinant printing, contributions to CSF-ICE
   Dipayan Datta          : RHF DLPNO-CCSD density
   Achintya Kumar Dutta   : EOM-CC, STEOM-CC
   Dmitry Ganyushin       : Spin-Orbit,Spin-Spin,Magnetic field MRCI
   Miquel Garcia          : C-PCM Hessian, Gaussian charge scheme
   Yang Guo               : DLPNO-NEVPT2, CIM, IAO-localization
   Andreas Hansen         : Spin unrestricted coupled pair/coupled cluster methods
   Benjamin Helmich-Paris : CASSCF linear response (MC-RPA)
   Lee Huntington         : MR-EOM, pCC
   Robert Izsak           : Overlap fitted RIJCOSX, COSX-SCS-MP3, EOM
   Christian Kollmar      : KDIIS, OOCD, Brueckner-CCSD(T), CCSD density
   Simone Kossmann        : Meta GGA functionals, TD-DFT gradient, OOMP2, MP2 Hessian
   Martin Krupicka        : AUTO-CI
   Lucas Lang             : DCDCAS
   Dagmar Lenk            : GEPOL surface, SMD
   Dimitrios Liakos       : Extrapolation schemes; Compound Job, initial MDCI parallelization
   Dimitrios Manganas     : Further ROCIS development; embedding schemes
   Dimitrios Pantazis     : SARC Basis sets
   Taras Petrenko         : DFT Hessian,TD-DFT gradient, ASA, ECA, R-Raman, ABS, FL, XAS/XES, NRVS
   Peter Pinski           : DLPNO-MP2, DLPNO-MP2 Gradient
   Christoph Reimann      : Effective Core Potentials
   Marius Retegan         : Local ZFS, SOC
   Christoph Riplinger    : Optimizer, TS searches, QM/MM, DLPNO-CCSD(T), (RO)-DLPNO pert. Triples
   Tobias Risthaus        : Range-separated hybrids, TD-DFT gradient, RPA, STAB
   Michael Roemelt        : Original ROCIS implementation
   Masaaki Saitow         : Open-shell DLPNO-CCSD energy and density
   Barbara Sandhoefer     : DKH picture change effects
   Avijit Sen             : IP-ROCIS
   Kantharuban Sivalingam : CASSCF convergence, NEVPT2, FIC-MRCI
   Bernardo de Souza      : ESD, SOC TD-DFT
   Georgi Stoychev        : AutoAux, RI-MP2 NMR
   Willem Van den Heuvel  : Paramagnetic NMR
   Boris Wezisla          : Elementary symmetry handling
   Frank Wennmohs         : Technical directorship


 We gratefully acknowledge several colleagues who have allowed us to
 interface, adapt or use parts of their codes:
   Stefan Grimme, W. Hujo, H. Kruse,             : VdW corrections, initial TS optimization,
                  C. Bannwarth                     DFT functionals, gCP, sTDA/sTD-DF
   Ed Valeev, F. Pavosevic, A. Kumar             : LibInt (2-el integral package), F12 methods
   Garnet Chan, S. Sharma, J. Yang, R. Olivares  : DMRG
   Ulf Ekstrom                                   : XCFun DFT Library
   Mihaly Kallay                                 : mrcc  (arbitrary order and MRCC methods)
   Andreas Klamt, Michael Diedenhofen            : otool_cosmo (COSMO solvation model)
   Jiri Pittner, Ondrej Demel                    : Mk-CCSD
   Frank Weinhold                                : gennbo (NPA and NBO analysis)
   Christopher J. Cramer and Donald G. Truhlar   : smd solvation model
   Lars Goerigk                                  : TD-DFT with DH, B97 family of functionals
   V. Asgeirsson, H. Jonsson                     : NEB implementation
   FAccTs GmbH                                   : IRC, NEB, NEB-TS, Multilevel, MM, QM/MM, CI optimization
   S Lehtola, MJT Oliveira, MAL Marques          : LibXC Library


 Your calculation uses the libint2 library for the computation of 2-el integrals
 For citations please refer to: http://libint.valeyev.net

 Your ORCA version has been built with support for libXC version: 4.2.3
 For citations please refer to: https://tddft.org/programs/libxc/

 This ORCA versions uses:
   CBLAS   interface :  Fast vector & matrix operations
   LAPACKE interface :  Fast linear algebra routines
   SCALAPACK package :  Parallel linear algebra routines


Your calculation utilizes the atom-pairwise dispersion correction
with the Becke-Johnson damping scheme (D3BJ)
Cite in your paper:
S.Grimme, S.Ehrlich, L.Goerigk, J Comput Chem, (2011), 32, 1456–1465 
S.Grimme, J.Antony, S.Ehrlich and H.Krieg, J.Chem.Phys., 132, (2010), 154104 
   

----- Orbital basis set information -----
Your calculation utilizes the basis: aug-cc-pVTZ 
    H, B-Ne : Obtained from the ccRepo (grant-hill.group.shef.ac.uk/ccrepo) Feb. 2017
              R. A. Kendall, T. H. Dunning, Jr., R. J. Harrison, J. Chem. Phys. 96, 6796 (1992)
         He : Obtained from the ccRepo (grant-hill.group.shef.ac.uk/ccrepo) Feb. 2017
              D. E. Woon, T. H. Dunning, Jr., J. Chem. Phys. 100, 2975 (1994)
  Li-Be, Na : Obtained from the ccRepo (grant-hill.group.shef.ac.uk/ccrepo) Feb. 2017
              B. P. Prascher, D. E. Woon, K. A. Peterson, T. H. Dunning, Jr., A. K. Wilson, Theor. Chem. Acc. 128, 69 (2011)
         Mg : Obtained from the Peterson Research Group Website (tyr0.chem.wsu.edu/~kipeters) Feb. 2017
              B. P. Prascher, D. E. Woon, K. A. Peterson, T. H. Dunning, Jr., A. K. Wilson, Theor. Chem. Acc. 128, 69 (2011)
      Al-Ar : Obtained from the ccRepo (grant-hill.group.shef.ac.uk/ccrepo) Feb. 2017
              D. E. Woon, T. H. Dunning, Jr., J. Chem. Phys. 98, 1358 (1993)
      Sc-Zn : Obtained from the ccRepo (grant-hill.group.shef.ac.uk/ccrepo) Feb. 2017
              N. B. Balabanov, K. A. Peterson, J. Chem. Phys. 123, 064107 (2005)
              N. B. Balabanov, K. A. Peterson, J. Chem. Phys. 125, 074110 (2006)
      Ga-Kr : Obtained from the ccRepo (grant-hill.group.shef.ac.uk/ccrepo) Feb. 2017
              A. K. Wilson, D. E. Woon, K. A. Peterson, T. H. Dunning, Jr., J. Chem. Phys. 110, 7667 (1999)
     Ag, Au : Obtained from the Peterson Research Group Website (tyr0.chem.wsu.edu/~kipeters) Feb. 2017
              K. A. Peterson, C. Puzzarini, Theor. Chem. Acc. 114, 283 (2005)

----- AuxJ basis set information -----
Your calculation utilizes the auxiliary basis: def2/J
   F. Weigend, Phys. Chem. Chem. Phys. 8, 1057 (2006).

================================================================================
                                        WARNINGS
                       Please study these warnings very carefully!
================================================================================


WARNING: your system is open-shell and RHF/RKS was chosen
  ===> : WILL SWITCH to UHF/UKS


INFO   : the flag for use of LIBINT has been found!

================================================================================
                                       INPUT FILE
================================================================================
NAME = 16_VBr.in
|  1> #
|  2> # 16_VBr tpss/aug-cc-pvtz
|  3> #
|  4> ! tpss d3bj aug-cc-pvtz def2/j grid4 nofinalgrid
|  5> 
|  6> *xyz 0 5
|  7>   V   0.00000000000000      0.00000000000000     -0.18045152200616
|  8>   Br  0.00000000000000      0.00000000000000      2.18045152200616
|  9> *
| 10> 
| 11> %pal
| 12> nprocs 24
| 13> end
| 14> 
| 15> 
| 16>                          ****END OF INPUT****
================================================================================

                       ****************************
                       * Single Point Calculation *
                       ****************************

---------------------------------
CARTESIAN COORDINATES (ANGSTROEM)
---------------------------------
  V      0.000000    0.000000   -0.180452
  Br     0.000000    0.000000    2.180452

----------------------------
CARTESIAN COORDINATES (A.U.)
----------------------------
  NO LB      ZA    FRAG     MASS         X           Y           Z
   0 V    23.0000    0    50.940    0.000000    0.000000   -0.341004
   1 Br   35.0000    0    79.900    0.000000    0.000000    4.120456

--------------------------------
INTERNAL COORDINATES (ANGSTROEM)
--------------------------------
 V      0   0   0     0.000000000000     0.00000000     0.00000000
 Br     1   0   0     2.360903044012     0.00000000     0.00000000

---------------------------
INTERNAL COORDINATES (A.U.)
---------------------------
 V      0   0   0     0.000000000000     0.00000000     0.00000000
 Br     1   0   0     4.461460181924     0.00000000     0.00000000

---------------------
BASIS SET INFORMATION
---------------------
There are 2 groups of distinct atoms

 Group   1 Type V   : 116s77p23d3f2g contracted to 8s7p5d3f2g pattern {19191919191911/151515151511/77711/111/11}
 Group   2 Type Br  : 75s36p10d2f contracted to 7s6p4d2f pattern {18181818111/111111111/7111/11}

Atom   0V    basis set group =>   1
Atom   1Br   basis set group =>   2
---------------------------------
AUXILIARY/J BASIS SET INFORMATION
---------------------------------
There are 2 groups of distinct atoms

 Group   1 Type V   : 19s5p5d3f3g contracted to 8s5p5d2f3g pattern {121111111/11111/11111/21/111}
 Group   2 Type Br  : 19s5p5d3f1g contracted to 8s4p3d2f1g pattern {121111111/2111/311/21/1}

Atom   0V    basis set group =>   1
Atom   1Br   basis set group =>   2


           ************************************************************
           *        Program running with 24 parallel MPI-processes    *
           *              working on a common directory               *
           ************************************************************
------------------------------------------------------------------------------
                           ORCA GTO INTEGRAL CALCULATION
                           -- RI-GTO INTEGRALS CHOSEN --
------------------------------------------------------------------------------

                         BASIS SET STATISTICS AND STARTUP INFO

Gaussian basis set:
 # of primitive gaussian shells          ...  344
 # of primitive gaussian functions       ...  748
 # of contracted shells                  ...   44
 # of contracted basis functions         ...  152
 Highest angular momentum                ...    4
 Maximum contraction depth               ...   19
Auxiliary gaussian basis set:
 # of primitive gaussian shells          ...   68
 # of primitive gaussian functions       ...  196
 # of contracted shells                  ...   41
 # of contracted aux-basis functions     ...  147
 Highest angular momentum                ...    4
 Maximum contraction depth               ...   12
Ratio of auxiliary to basis functions    ...  0.97
Integral package used                  ... LIBINT
 One Electron integrals                  ... done
 Ordering auxiliary basis shells         ... done
 Integral threshhold             Thresh  ...  1.000e-10
 Primitive cut-off               TCut    ...  1.000e-11
 Pre-screening matrix                    ... done
 Shell pair data                         ... 
 Ordering of the shell pairs             ... done (   0.000 sec) 990 of 990 pairs
 Determination of significant pairs      ... done (   0.000 sec)
 Creation of shell pair data             ... done (   0.002 sec)
 Storage of shell pair data              ... done (   0.385 sec)
 Shell pair data done in (   0.388 sec)
 Computing two index integrals           ... done
 Cholesky decomposition of the V-matrix  ... done


Timings:
 Total evaluation time                   ...   4.617 sec (  0.077 min)
 One electron matrix time                ...   0.061 sec (  0.001 min) =  1.3%
 Schwartz matrix evaluation time         ...   4.142 sec (  0.069 min) = 89.7%
 Two index repulsion integral time       ...   0.001 sec (  0.000 min) =  0.0%
 Cholesky decomposition of V             ...   0.001 sec (  0.000 min) =  0.0%
 Three index repulsion integral time     ...   0.000 sec (  0.000 min) =  0.0%



           ************************************************************
           *        Program running with 24 parallel MPI-processes    *
           *              working on a common directory               *
           ************************************************************
-------------------------------------------------------------------------------
                                 ORCA SCF
-------------------------------------------------------------------------------

------------
SCF SETTINGS
------------
Hamiltonian:
 Density Functional     Method          .... DFT(GTOs)
 Exchange Functional    Exchange        .... TPSS
 Correlation Functional Correlation     .... TPSS
 LDA part of GGA corr.  LDAOpt          .... PW91-LDA
 Gradients option       PostSCFGGA      .... off
   Density functional embedding theory  .... OFF
   NL short-range parameter             ....  5.000000
 RI-approximation to the Coulomb term is turned on
   Number of auxiliary basis functions  .... 147


General Settings:
 Integral files         IntName         .... 16_VBr
 Hartree-Fock type      HFTyp           .... UHF
 Total Charge           Charge          ....    0
 Multiplicity           Mult            ....    5
 Number of Electrons    NEL             ....   58
 Basis Dimension        Dim             ....  152
 Nuclear Repulsion      ENuc            ....    180.4342002785 Eh

Convergence Acceleration:
 DIIS                   CNVDIIS         .... on
   Start iteration      DIISMaxIt       ....    12
   Startup error        DIISStart       ....  0.200000
   # of expansion vecs  DIISMaxEq       ....     5
   Bias factor          DIISBfac        ....   1.050
   Max. coefficient     DIISMaxC        ....  10.000
 Newton-Raphson         CNVNR           .... off
 SOSCF                  CNVSOSCF        .... off
 Level Shifting         CNVShift        .... on
   Level shift para.    LevelShift      ....    0.2500
   Turn off err/grad.   ShiftErr        ....    0.0010
 Zerner damping         CNVZerner       .... off
 Static damping         CNVDamp         .... on
   Fraction old density DampFac         ....    0.7000
   Max. Damping (<1)    DampMax         ....    0.9800
   Min. Damping (>=0)   DampMin         ....    0.0000
   Turn off err/grad.   DampErr         ....    0.1000
 Fernandez-Rico         CNVRico         .... off

SCF Procedure:
 Maximum # iterations   MaxIter         ....   125
 SCF integral mode      SCFMode         .... Direct
   Integral package                     .... LIBINT
 Reset frequency        DirectResetFreq ....    20
 Integral Threshold     Thresh          ....  1.000e-10 Eh
 Primitive CutOff       TCut            ....  1.000e-11 Eh

Convergence Tolerance:
 Convergence Check Mode ConvCheckMode   .... Total+1el-Energy
 Convergence forced     ConvForced      .... 0
 Energy Change          TolE            ....  1.000e-06 Eh
 1-El. energy change                    ....  1.000e-03 Eh
 DIIS Error             TolErr          ....  1.000e-06


Diagonalization of the overlap matrix:
Smallest eigenvalue                        ... 6.612e-05
Time for diagonalization                   ...    0.005 sec
Threshold for overlap eigenvalues          ... 1.000e-08
Number of eigenvalues below threshold      ... 0
Time for construction of square roots      ...    0.003 sec
Total time needed                          ...    0.008 sec

-------------------
DFT GRID GENERATION
-------------------

General Integration Accuracy     IntAcc      ...  4.670
Radial Grid Type                 RadialGrid  ... Gauss-Chebyshev
Angular Grid (max. acc.)         AngularGrid ... Lebedev-302
Angular grid pruning method      GridPruning ... 3 (G Style)
Weight generation scheme         WeightScheme... Becke
Basis function cutoff            BFCut       ...    1.0000e-10
Integration weight cutoff        WCut        ...    1.0000e-14
Grids for H and He will be reduced by one unit

# of grid points (after initial pruning)     ...  19280 (   0.0 sec)
# of grid points (after weights+screening)   ...  19253 (   0.0 sec)
nearest neighbour list constructed           ...    0.0 sec
Grid point re-assignment to atoms done       ...    0.0 sec
Grid point division into batches done        ...    0.2 sec
Reduced shell lists constructed in    0.2 sec

Total number of grid points                  ...    19253
Total number of batches                      ...      301
Average number of points per batch           ...       63
Average number of grid points per atom       ...     9626
Average number of shells per batch           ...    19.07 (43.34%)
Average number of basis functions per batch  ...    51.93 (34.16%)
Average number of large shells per batch     ...    11.86 (62.17%)
Average number of large basis fcns per batch ...    31.00 (59.70%)
Maximum spatial batch extension              ...  24.49, 24.19, 17.83 au
Average spatial batch extension              ...   0.84,  0.83,  0.67 au

Time for grid setup =    0.216 sec

------------------------------
INITIAL GUESS: MODEL POTENTIAL
------------------------------
Loading Hartree-Fock densities                     ... done
Calculating cut-offs                               ... done
Setting up the integral package                    ... done
Initializing the effective Hamiltonian             ... done
Starting the Coulomb interaction                   ... done (   0.0 sec)
Reading the grid                                   ... done
Mapping shells                                     ... done
Starting the XC term evaluation                    ... done (   0.0 sec)
  promolecular density results
     # of electrons  =     57.999978244
     EX              =   -133.234787564
     EC              =     -2.668426164
     EX+EC           =   -135.903213729
Transforming the Hamiltonian                       ... done (   0.0 sec)
Diagonalizing the Hamiltonian                      ... done (   0.0 sec)
Back transforming the eigenvectors                 ... done (   0.0 sec)
Now organizing SCF variables                       ... done
                      ------------------
                      INITIAL GUESS DONE (   0.3 sec)
                      ------------------
--------------
SCF ITERATIONS
--------------
ITER       Energy         Delta-E        Max-DP      RMS-DP      [F,P]     Damp
               ***  Starting incremental Fock matrix formation  ***
  0  -3518.0991304980   0.000000000000 0.13615612  0.00217688  0.1265216 0.7000
  1  -3518.1293021406  -0.030171642620 0.05012645  0.00073440  0.0352370 0.7000
                               ***Turning on DIIS***
  2  -3518.1387286759  -0.009426535286 0.08759807  0.00159556  0.0214958 0.0000
  3  -3518.1586248650  -0.019896189148 0.02750435  0.00049357  0.0223892 0.0000
  4  -3518.1619559711  -0.003331106104 0.05007489  0.00092502  0.0229244 0.0000
  5  -3518.1636328900  -0.001676918910 0.01219284  0.00024789  0.0035834 0.0000
  6  -3518.1639972049  -0.000364314906 0.00989192  0.00010665  0.0027107 0.0000
  7  -3518.1642250100  -0.000227805048 0.00862370  0.00008290  0.0023820 0.0000
  8  -3518.1643911465  -0.000166136512 0.00767801  0.00006898  0.0021828 0.0000
  9  -3518.1645112580  -0.000120111461 0.00677050  0.00005962  0.0019528 0.0000
 10  -3518.1645995258  -0.000088267814 0.00573110  0.00006819  0.0016526 0.0000
 11  -3518.1646645317  -0.000065005924 0.00502855  0.00004706  0.0016457 0.0000
 12  -3518.1647167638  -0.000052232098 0.00431366  0.00004917  0.0013584 0.0000
 13  -3518.1647515284  -0.000034764611 0.00373467  0.00003605  0.0013039 0.0000
 14  -3518.1647817700  -0.000030241639 0.00309365  0.00004124  0.0010426 0.0000
 15  -3518.1647985382  -0.000016768154 0.00273531  0.00002740  0.0012759 0.0000
 16  -3518.1648163699  -0.000017831743 0.01720524  0.00015804  0.0008521 0.0000
 17  -3518.1648449383  -0.000028568407 0.00042292  0.00000874  0.0021220 0.0000
 18  -3518.1648508050  -0.000005866653 0.00040308  0.00000619  0.0016115 0.0000
 19  -3518.1648549561  -0.000004151142 0.00022401  0.00000278  0.0011591 0.0000
               *** Restarting incremental Fock matrix formation ***
                                   *** Resetting DIIS ***
 20  -3518.1648541349   0.000000821212 0.00342353  0.00006029  0.0010642 0.0000
 21  -3518.1648511642   0.000002970780 0.00273687  0.00005123  0.0019803 0.0000
 22  -3518.1648568122  -0.000005648059 0.00059866  0.00000731  0.0006682 0.0000
 23  -3518.1648580765  -0.000001264331 0.00024215  0.00000524  0.0000995 0.0000
 24  -3518.1648584242  -0.000000347639 0.00028034  0.00000290  0.0000660 0.0000
 25  -3518.1648585835  -0.000000159301 0.00026016  0.00000197  0.0000207 0.0000
                 **** Energy Check signals convergence ****

               *****************************************************
               *                     SUCCESS                       *
               *           SCF CONVERGED AFTER  26 CYCLES          *
               *****************************************************


----------------
TOTAL SCF ENERGY
----------------

Total Energy       :        -3518.16485840 Eh          -95734.13283 eV

Components:
Nuclear Repulsion  :          180.43420028 Eh            4909.86420 eV
Electronic Energy  :        -3698.59905868 Eh         -100643.99703 eV
One Electron Energy:        -5239.98753114 Eh         -142587.30972 eV
Two Electron Energy:         1541.38847246 Eh           41943.31269 eV

Virial components:
Potential Energy   :        -7030.82533028 Eh         -191318.48368 eV
Kinetic Energy     :         3512.66047188 Eh           95584.35085 eV
Virial Ratio       :            2.00156701


DFT components:
N(Alpha)           :       30.999996019323 electrons
N(Beta)            :       26.999997354203 electrons
N(Total)           :       57.999993373526 electrons
E(X)               :     -133.957561131914 Eh       
E(C)               :       -2.666535995089 Eh       
E(XC)              :     -136.624097127003 Eh       
DFET-embed. en.    :        0.000000000000 Eh       

---------------
SCF CONVERGENCE
---------------

  Last Energy change         ...    1.8374e-07  Tolerance :   1.0000e-06
  Last MAX-Density change    ...    2.9393e-04  Tolerance :   1.0000e-05
  Last RMS-Density change    ...    2.2363e-06  Tolerance :   1.0000e-06
  Last DIIS Error            ...    1.4809e-05  Tolerance :   1.0000e-06

             **** THE GBW FILE WAS UPDATED (16_VBr.gbw) ****
             **** DENSITY FILE WAS UPDATED (16_VBr.scfp) ****
             **** ENERGY FILE WAS UPDATED (16_VBr.en.tmp) ****
----------------------
UHF SPIN CONTAMINATION
----------------------

Warning: in a DFT calculation there is little theoretical justification to 
         calculate <S**2> as in Hartree-Fock theory. We will do it anyways
         but you should keep in mind that the values have only limited relevance

Expectation value of <S**2>     :     6.017226
Ideal value S*(S+1) for S=2.0   :     6.000000
Deviation                       :     0.017226

             **** THE GBW FILE WAS UPDATED (16_VBr.gbw) ****
             **** DENSITY FILE WAS UPDATED (16_VBr.scfp) ****
----------------
ORBITAL ENERGIES
----------------
                 SPIN UP ORBITALS
  NO   OCC          E(Eh)            E(eV) 
   0   1.0000    -481.703173    -13107.8097 
   1   1.0000    -196.097626     -5336.0877 
   2   1.0000     -61.921004     -1684.9562 
   3   1.0000     -55.753307     -1517.1246 
   4   1.0000     -55.752965     -1517.1153 
   5   1.0000     -55.752687     -1517.1077 
   6   1.0000     -21.866336      -595.0132 
   7   1.0000     -18.385400      -500.2922 
   8   1.0000     -18.382700      -500.2187 
   9   1.0000     -18.378257      -500.0978 
  10   1.0000      -8.446804      -229.8492 
  11   1.0000      -6.284294      -171.0043 
  12   1.0000      -6.283277      -170.9767 
  13   1.0000      -6.281747      -170.9350 
  14   1.0000      -2.519067       -68.5473 
  15   1.0000      -2.453317       -66.7581 
  16   1.0000      -2.453057       -66.7511 
  17   1.0000      -2.451999       -66.7223 
  18   1.0000      -2.450980       -66.6946 
  19   1.0000      -2.450827       -66.6904 
  20   1.0000      -1.585716       -43.1495 
  21   1.0000      -1.578525       -42.9538 
  22   1.0000      -1.569342       -42.7040 
  23   1.0000      -0.674564       -18.3558 
  24   1.0000      -0.291637        -7.9358 
  25   1.0000      -0.256789        -6.9876 
  26   1.0000      -0.256106        -6.9690 
  27   1.0000      -0.179997        -4.8980 
  28   1.0000      -0.163717        -4.4550 
  29   1.0000      -0.161178        -4.3859 
  30   1.0000      -0.154657        -4.2084 
  31   0.0000      -0.133375        -3.6293 
  32   0.0000      -0.115496        -3.1428 
  33   0.0000      -0.044265        -1.2045 
  34   0.0000      -0.041072        -1.1176 
  35   0.0000      -0.004308        -0.1172 
  36   0.0000      -0.000470        -0.0128 
  37   0.0000       0.018883         0.5138 
  38   0.0000       0.019913         0.5419 
  39   0.0000       0.033045         0.8992 
  40   0.0000       0.033295         0.9060 
  41   0.0000       0.035335         0.9615 
  42   0.0000       0.037331         1.0158 
  43   0.0000       0.038307         1.0424 
  44   0.0000       0.049213         1.3392 
  45   0.0000       0.079352         2.1593 
  46   0.0000       0.094532         2.5723 
  47   0.0000       0.097012         2.6398 
  48   0.0000       0.097492         2.6529 
  49   0.0000       0.127013         3.4562 
  50   0.0000       0.128327         3.4920 
  51   0.0000       0.146556         3.9880 
  52   0.0000       0.154878         4.2144 
  53   0.0000       0.156577         4.2607 
  54   0.0000       0.164894         4.4870 
  55   0.0000       0.171376         4.6634 
  56   0.0000       0.174241         4.7413 
  57   0.0000       0.196821         5.3558 
  58   0.0000       0.197701         5.3797 
  59   0.0000       0.241943         6.5836 
  60   0.0000       0.271702         7.3934 
  61   0.0000       0.271897         7.3987 
  62   0.0000       0.309639         8.4257 
  63   0.0000       0.362221         9.8565 
  64   0.0000       0.362476         9.8635 
  65   0.0000       0.390994        10.6395 
  66   0.0000       0.414843        11.2884 
  67   0.0000       0.418546        11.3892 
  68   0.0000       0.444905        12.1065 
  69   0.0000       0.448289        12.1986 
  70   0.0000       0.501557        13.6481 
  71   0.0000       0.515466        14.0265 
  72   0.0000       0.520806        14.1718 
  73   0.0000       0.557552        15.1718 
  74   0.0000       0.561908        15.2903 
  75   0.0000       0.577672        15.7192 
  76   0.0000       0.594667        16.1817 
  77   0.0000       0.601313        16.3626 
  78   0.0000       0.601773        16.3751 
  79   0.0000       0.611167        16.6307 
  80   0.0000       0.613176        16.6854 
  81   0.0000       0.654653        17.8140 
  82   0.0000       0.657182        17.8828 
  83   0.0000       0.723338        19.6830 
  84   0.0000       0.751980        20.4624 
  85   0.0000       0.756262        20.5789 
  86   0.0000       0.784187        21.3388 
  87   0.0000       0.784215        21.3396 
  88   0.0000       0.819609        22.3027 
  89   0.0000       0.889615        24.2077 
  90   0.0000       0.890312        24.2266 
  91   0.0000       1.062157        28.9028 
  92   0.0000       1.099104        29.9081 
  93   0.0000       1.103953        30.0401 
  94   0.0000       1.311264        35.6813 
  95   0.0000       1.311693        35.6930 
  96   0.0000       1.333812        36.2949 
  97   0.0000       1.339473        36.4489 
  98   0.0000       1.368011        37.2255 
  99   0.0000       1.443148        39.2701 
 100   0.0000       1.458806        39.6961 
 101   0.0000       1.576315        42.8937 
 102   0.0000       1.576368        42.8952 
 103   0.0000       1.592045        43.3217 
 104   0.0000       1.593370        43.3578 
 105   0.0000       1.609029        43.7839 
 106   0.0000       1.714488        46.6536 
 107   0.0000       1.721224        46.8369 
 108   0.0000       1.751117        47.6503 
 109   0.0000       1.760814        47.9142 
 110   0.0000       1.770222        48.1702 
 111   0.0000       1.905274        51.8451 
 112   0.0000       1.906352        51.8745 
 113   0.0000       1.967246        53.5315 
 114   0.0000       1.986774        54.0629 
 115   0.0000       1.987172        54.0737 
 116   0.0000       2.025026        55.1037 
 117   0.0000       2.025038        55.1041 
 118   0.0000       2.077000        56.5180 
 119   0.0000       2.078005        56.5454 
 120   0.0000       2.079184        56.5775 
 121   0.0000       2.083700        56.7004 
 122   0.0000       2.083832        56.7039 
 123   0.0000       2.148794        58.4717 
 124   0.0000       2.153034        58.5870 
 125   0.0000       2.274091        61.8812 
 126   0.0000       2.297617        62.5213 
 127   0.0000       2.298935        62.5572 
 128   0.0000       2.338131        63.6238 
 129   0.0000       2.705528        73.6212 
 130   0.0000       2.708239        73.6949 
 131   0.0000       2.881064        78.3977 
 132   0.0000       2.892921        78.7204 
 133   0.0000       2.894377        78.7600 
 134   0.0000       3.442606        93.6781 
 135   0.0000       4.290162       116.7412 
 136   0.0000       4.765161       129.6666 
 137   0.0000       4.765740       129.6824 
 138   0.0000       4.772166       129.8572 
 139   0.0000       4.775348       129.9438 
 140   0.0000       4.839800       131.6977 
 141   0.0000       4.846633       131.8836 
 142   0.0000       5.115059       139.1878 
 143   0.0000       5.115261       139.1933 
 144   0.0000       5.118239       139.2744 
 145   0.0000       5.118940       139.2934 
 146   0.0000       5.141801       139.9155 
 147   0.0000       5.166567       140.5894 
 148   0.0000       5.171747       140.7304 
 149   0.0000       5.271593       143.4473 
 150   0.0000       5.274104       143.5157 
 151   0.0000       5.378807       146.3648 

                 SPIN DOWN ORBITALS
  NO   OCC          E(Eh)            E(eV) 
   0   1.0000    -481.703365    -13107.8149 
   1   1.0000    -196.096998     -5336.0706 
   2   1.0000     -61.921048     -1684.9574 
   3   1.0000     -55.753538     -1517.1309 
   4   1.0000     -55.753176     -1517.1211 
   5   1.0000     -55.752682     -1517.1076 
   6   1.0000     -21.830070      -594.0264 
   7   1.0000     -18.361397      -499.6390 
   8   1.0000     -18.353029      -499.4113 
   9   1.0000     -18.344016      -499.1661 
  10   1.0000      -8.447037      -229.8556 
  11   1.0000      -6.284706      -171.0155 
  12   1.0000      -6.283648      -170.9868 
  13   1.0000      -6.281754      -170.9352 
  14   1.0000      -2.453906       -66.7742 
  15   1.0000      -2.453610       -66.7661 
  16   1.0000      -2.452230       -66.7286 
  17   1.0000      -2.451181       -66.7000 
  18   1.0000      -2.450955       -66.6939 
  19   1.0000      -2.408793       -65.5466 
  20   1.0000      -1.489748       -40.5381 
  21   1.0000      -1.465819       -39.8870 
  22   1.0000      -1.440209       -39.1901 
  23   1.0000      -0.676171       -18.3995 
  24   1.0000      -0.283982        -7.7275 
  25   1.0000      -0.255034        -6.9398 
  26   1.0000      -0.249769        -6.7966 
  27   0.0000      -0.099380        -2.7043 
  28   0.0000      -0.080172        -2.1816 
  29   0.0000      -0.060522        -1.6469 
  30   0.0000      -0.049811        -1.3554 
  31   0.0000      -0.045154        -1.2287 
  32   0.0000      -0.042986        -1.1697 
  33   0.0000      -0.006379        -0.1736 
  34   0.0000      -0.003149        -0.0857 
  35   0.0000       0.007716         0.2100 
  36   0.0000       0.015196         0.4135 
  37   0.0000       0.032288         0.8786 
  38   0.0000       0.033038         0.8990 
  39   0.0000       0.049212         1.3391 
  40   0.0000       0.052763         1.4358 
  41   0.0000       0.053903         1.4668 
  42   0.0000       0.054047         1.4707 
  43   0.0000       0.054183         1.4744 
  44   0.0000       0.061624         1.6769 
  45   0.0000       0.098551         2.6817 
  46   0.0000       0.102470         2.7883 
  47   0.0000       0.103966         2.8291 
  48   0.0000       0.110076         2.9953 
  49   0.0000       0.157822         4.2946 
  50   0.0000       0.159856         4.3499 
  51   0.0000       0.171218         4.6591 
  52   0.0000       0.174284         4.7425 
  53   0.0000       0.174582         4.7506 
  54   0.0000       0.185514         5.0481 
  55   0.0000       0.191432         5.2091 
  56   0.0000       0.194435         5.2908 
  57   0.0000       0.215751         5.8709 
  58   0.0000       0.215862         5.8739 
  59   0.0000       0.262393         7.1401 
  60   0.0000       0.280785         7.6406 
  61   0.0000       0.283330         7.7098 
  62   0.0000       0.322242         8.7687 
  63   0.0000       0.396255        10.7826 
  64   0.0000       0.396338        10.7849 
  65   0.0000       0.428215        11.6523 
  66   0.0000       0.440320        11.9817 
  67   0.0000       0.440507        11.9868 
  68   0.0000       0.453305        12.3351 
  69   0.0000       0.454736        12.3740 
  70   0.0000       0.531407        14.4603 
  71   0.0000       0.532056        14.4780 
  72   0.0000       0.543705        14.7950 
  73   0.0000       0.588638        16.0177 
  74   0.0000       0.594112        16.1666 
  75   0.0000       0.594177        16.1684 
  76   0.0000       0.602173        16.3860 
  77   0.0000       0.603316        16.4171 
  78   0.0000       0.603322        16.4172 
  79   0.0000       0.643521        17.5111 
  80   0.0000       0.649626        17.6772 
  81   0.0000       0.717123        19.5139 
  82   0.0000       0.717769        19.5315 
  83   0.0000       0.745594        20.2886 
  84   0.0000       0.775819        21.1111 
  85   0.0000       0.783833        21.3292 
  86   0.0000       0.784845        21.3567 
  87   0.0000       0.784861        21.3572 
  88   0.0000       0.841792        22.9063 
  89   0.0000       0.900086        24.4926 
  90   0.0000       0.900137        24.4940 
  91   0.0000       1.083138        29.4737 
  92   0.0000       1.125746        30.6331 
  93   0.0000       1.131197        30.7814 
  94   0.0000       1.397756        38.0349 
  95   0.0000       1.397821        38.0366 
  96   0.0000       1.400774        38.1170 
  97   0.0000       1.405111        38.2350 
  98   0.0000       1.412295        38.4305 
  99   0.0000       1.489162        40.5222 
 100   0.0000       1.503094        40.9013 
 101   0.0000       1.631108        44.3847 
 102   0.0000       1.635076        44.4927 
 103   0.0000       1.635127        44.4941 
 104   0.0000       1.646183        44.7949 
 105   0.0000       1.646475        44.8029 
 106   0.0000       1.748665        47.5836 
 107   0.0000       1.750039        47.6210 
 108   0.0000       1.775603        48.3166 
 109   0.0000       1.783646        48.5355 
 110   0.0000       1.789193        48.6864 
 111   0.0000       1.910795        51.9954 
 112   0.0000       1.915916        52.1347 
 113   0.0000       1.975659        53.7604 
 114   0.0000       1.988371        54.1063 
 115   0.0000       1.988428        54.1079 
 116   0.0000       2.024418        55.0872 
 117   0.0000       2.024422        55.0873 
 118   0.0000       2.083217        56.6872 
 119   0.0000       2.083252        56.6882 
 120   0.0000       2.094639        56.9980 
 121   0.0000       2.099837        57.1395 
 122   0.0000       2.156161        58.6721 
 123   0.0000       2.201357        59.9020 
 124   0.0000       2.213739        60.2389 
 125   0.0000       2.297416        62.5159 
 126   0.0000       2.321548        63.1725 
 127   0.0000       2.328877        63.3720 
 128   0.0000       2.376523        64.6685 
 129   0.0000       2.808827        76.4321 
 130   0.0000       2.810756        76.4846 
 131   0.0000       2.951739        80.3209 
 132   0.0000       2.953593        80.3714 
 133   0.0000       2.979957        81.0887 
 134   0.0000       3.506133        95.4067 
 135   0.0000       4.297765       116.9481 
 136   0.0000       4.887644       132.9996 
 137   0.0000       4.890244       133.0703 
 138   0.0000       4.900681       133.3543 
 139   0.0000       4.900713       133.3552 
 140   0.0000       4.937150       134.3467 
 141   0.0000       4.971601       135.2841 
 142   0.0000       5.198289       141.4526 
 143   0.0000       5.198339       141.4540 
 144   0.0000       5.209195       141.7494 
 145   0.0000       5.209414       141.7554 
 146   0.0000       5.228209       142.2668 
 147   0.0000       5.240658       142.6055 
 148   0.0000       5.247401       142.7890 
 149   0.0000       5.331167       145.0684 
 150   0.0000       5.357331       145.7804 
 151   0.0000       5.459319       148.5556 

                    ********************************
                    * MULLIKEN POPULATION ANALYSIS *
                    ********************************

--------------------------------------------
MULLIKEN ATOMIC CHARGES AND SPIN POPULATIONS
--------------------------------------------
   0 V :    0.303182    4.055948
   1 Br:   -0.303182   -0.055948
Sum of atomic charges         :   -0.0000000
Sum of atomic spin populations:    4.0000000

-----------------------------------------------------
MULLIKEN REDUCED ORBITAL CHARGES AND SPIN POPULATIONS
-----------------------------------------------------
CHARGE
  0 V s       :     6.695499  s :     6.695499
      pz      :     4.111020  p :    12.202746
      px      :     4.043162
      py      :     4.048564
      dz2     :     0.717670  d :     3.771215
      dxz     :     0.475249
      dyz     :     0.677917
      dx2y2   :     0.993021
      dxy     :     0.907357
      f0      :     0.005739  f :     0.023780
      f+1     :     0.008732
      f-1     :     0.008828
      f+2     :     0.000099
      f-2     :     0.000353
      f+3     :     0.000016
      f-3     :     0.000012
      g0      :     0.001311  g :     0.003578
      g+1     :     0.001098
      g-1     :     0.001107
      g+2     :     0.000002
      g-2     :     0.000042
      g+3     :     0.000005
      g-3     :     0.000002
      g+4     :     0.000005
      g-4     :     0.000005
  1 Brs       :     8.012052  s :     8.012052
      pz      :     5.551529  p :    17.271774
      px      :     5.849407
      py      :     5.870838
      dz2     :     2.000865  d :    10.017162
      dxz     :     2.006395
      dyz     :     2.007314
      dx2y2   :     2.001279
      dxy     :     2.001309
      f0      :    -0.000188  f :     0.002194
      f+1     :     0.000662
      f-1     :     0.000684
      f+2     :     0.000514
      f-2     :     0.000516
      f+3     :     0.000003
      f-3     :     0.000003

SPIN
  0 V s       :     0.517326  s :     0.517326
      pz      :     0.040673  p :     0.082876
      px      :     0.018215
      py      :     0.023989
      dz2     :     0.567922  d :     3.455795
      dxz     :     0.390127
      dyz     :     0.597472
      dx2y2   :     0.993016
      dxy     :     0.907258
      f0      :    -0.000897  f :     0.000485
      f+1     :     0.000336
      f-1     :     0.000666
      f+2     :     0.000094
      f-2     :     0.000282
      f+3     :     0.000006
      f-3     :    -0.000002
      g0      :    -0.000086  g :    -0.000535
      g+1     :    -0.000261
      g-1     :    -0.000233
      g+2     :    -0.000000
      g-2     :     0.000029
      g+3     :     0.000004
      g-3     :     0.000001
      g+4     :     0.000005
      g-4     :     0.000005
  1 Brs       :     0.023122  s :     0.023122
      pz      :    -0.054049  p :    -0.089903
      px      :    -0.025961
      py      :    -0.009893
      dz2     :     0.001398  d :     0.009247
      dxz     :     0.002142
      dyz     :     0.003123
      dx2y2   :     0.001282
      dxy     :     0.001302
      f0      :     0.000294  f :     0.001586
      f+1     :     0.000125
      f-1     :     0.000148
      f+2     :     0.000513
      f-2     :     0.000510
      f+3     :    -0.000003
      f-3     :    -0.000003


                     *******************************
                     * LOEWDIN POPULATION ANALYSIS *
                     *******************************

-------------------------------------------
LOEWDIN ATOMIC CHARGES AND SPIN POPULATIONS
-------------------------------------------
   0 V :   -0.159408    3.919355
   1 Br:    0.159408    0.080645

----------------------------------------------------
LOEWDIN REDUCED ORBITAL CHARGES AND SPIN POPULATIONS
----------------------------------------------------
CHARGE
  0 V s       :     6.509735  s :     6.509735
      pz      :     4.210609  p :    12.340107
      px      :     4.059410
      py      :     4.070088
      dz2     :     0.853452  d :     4.008634
      dxz     :     0.537462
      dyz     :     0.729971
      dx2y2   :     0.986387
      dxy     :     0.901363
      f0      :     0.097794  f :     0.270196
      f+1     :     0.084346
      f-1     :     0.086856
      f+2     :     0.000441
      f-2     :     0.000732
      f+3     :     0.000016
      f-3     :     0.000012
      g0      :     0.012411  g :     0.030735
      g+1     :     0.008994
      g-1     :     0.009238
      g+2     :     0.000028
      g-2     :     0.000047
      g+3     :     0.000005
      g-3     :     0.000002
      g+4     :     0.000005
      g-4     :     0.000005
  1 Brs       :     7.575817  s :     7.575817
      pz      :     5.674689  p :    16.997733
      px      :     5.653829
      py      :     5.669214
      dz2     :     2.112703  d :    10.179281
      dxz     :     2.026076
      dyz     :     2.031986
      dx2y2   :     2.004415
      dxy     :     2.004102
      f0      :     0.048287  f :     0.087760
      f+1     :     0.014589
      f-1     :     0.017900
      f+2     :     0.003645
      f-2     :     0.003333
      f+3     :     0.000003
      f-3     :     0.000003

SPIN
  0 V s       :     0.469920  s :     0.469920
      pz      :     0.036829  p :     0.091511
      px      :     0.022062
      py      :     0.032620
      dz2     :     0.543922  d :     3.357669
      dxz     :     0.364842
      dyz     :     0.561263
      dx2y2   :     0.986379
      dxy     :     0.901262
      f0      :    -0.001063  f :     0.001060
      f+1     :    -0.000579
      f-1     :     0.001644
      f+2     :     0.000413
      f-2     :     0.000640
      f+3     :     0.000006
      f-3     :    -0.000002
      g0      :    -0.000310  g :    -0.000804
      g+1     :    -0.000385
      g-1     :    -0.000182
      g+2     :     0.000024
      g-2     :     0.000033
      g+3     :     0.000004
      g-3     :     0.000001
      g+4     :     0.000005
      g-4     :     0.000005
  1 Brs       :     0.023225  s :     0.023225
      pz      :     0.009895  p :    -0.014269
      px      :    -0.018008
      py      :    -0.006156
      dz2     :     0.010866  d :     0.046815
      dxz     :     0.010723
      dyz     :     0.016663
      dx2y2   :     0.004444
      dxy     :     0.004120
      f0      :     0.002420  f :     0.024874
      f+1     :     0.006070
      f-1     :     0.009419
      f+2     :     0.003644
      f-2     :     0.003326
      f+3     :    -0.000003
      f-3     :    -0.000003


                      *****************************
                      * MAYER POPULATION ANALYSIS *
                      *****************************

  NA   - Mulliken gross atomic population
  ZA   - Total nuclear charge
  QA   - Mulliken gross atomic charge
  VA   - Mayer's total valence
  BVA  - Mayer's bonded valence
  FA   - Mayer's free valence

  ATOM       NA         ZA         QA         VA         BVA        FA
  0 V     22.6968    23.0000     0.3032     5.1128     1.2820     3.8308
  1 Br    35.3032    35.0000    -0.3032     1.2914     1.2820     0.0094

  Mayer bond orders larger than 0.100000
B(  0-V ,  1-Br) :   1.2820 

-------
TIMINGS
-------

Total SCF time: 0 days 0 hours 0 min 6 sec 

Total time                  ....       6.312 sec
Sum of individual times     ....       6.112 sec  ( 96.8%)

Fock matrix formation       ....       5.534 sec  ( 87.7%)
  Split-RI-J                ....       4.147 sec  ( 74.9% of F)
  XC integration            ....       1.215 sec  ( 21.9% of F)
    Basis function eval.    ....       0.187 sec  ( 15.4% of XC)
    Density eval.           ....       0.202 sec  ( 16.7% of XC)
    XC-Functional eval.     ....       0.044 sec  (  3.6% of XC)
    XC-Potential eval.      ....       0.472 sec  ( 38.8% of XC)
Diagonalization             ....       0.148 sec  (  2.3%)
Density matrix formation    ....       0.019 sec  (  0.3%)
Population analysis         ....       0.008 sec  (  0.1%)
Initial guess               ....       0.131 sec  (  2.1%)
Orbital Transformation      ....       0.000 sec  (  0.0%)
Orbital Orthonormalization  ....       0.000 sec  (  0.0%)
DIIS solution               ....       0.057 sec  (  0.9%)
Grid generation             ....       0.216 sec  (  3.4%)


-------------------------------------------------------------------------------
                          DFT DISPERSION CORRECTION                            
                                                                               
                              DFTD3 V3.1  Rev 1                                
                          USING Becke-Johnson damping                          
-------------------------------------------------------------------------------
The TPSS functional is recognized
Active option DFTDOPT                   ...         4   

molecular C6(AA) [au] = 1228.125704 


            DFT-D V3
 parameters
 s6 scaling factor         :     1.0000 
 a1 scaling factor         :     0.4535 
 s8 scaling factor         :     1.9435 
 a2 scaling factor         :     4.4752 
 ad hoc parameters k1-k3   :    16.0000     1.3333    -4.0000 

 Edisp/kcal,au: -1.308081676731  -0.002084560618 
 E6   /kcal   :  -0.406528350 
 E8   /kcal   :  -0.901553326 
 % E8         :  68.921791536 

-------------------------   ----------------
Dispersion correction           -0.002084561
-------------------------   ----------------


-------------------------   --------------------
FINAL SINGLE POINT ENERGY     -3518.166942960357
-------------------------   --------------------


                            ***************************************
                            *     ORCA property calculations      *
                            ***************************************

                                    ---------------------
                                    Active property flags
                                    ---------------------
   (+) Dipole Moment


------------------------------------------------------------------------------
                       ORCA ELECTRIC PROPERTIES CALCULATION
------------------------------------------------------------------------------

Dipole Moment Calculation                       ... on
Quadrupole Moment Calculation                   ... off
Polarizability Calculation                      ... off
GBWName                                         ... 16_VBr.gbw
Electron density file                           ... 16_VBr.scfp
The origin for moment calculation is the CENTER OF MASS  = ( 0.000000,  0.000000  2.383474)

-------------
DIPOLE MOMENT
-------------
                                X             Y             Z
Electronic contribution:      0.00000       0.00000       0.21751
Nuclear contribution   :      0.00000       0.00000      -1.86860
                        -----------------------------------------
Total Dipole Moment    :      0.00000       0.00000      -1.65109
                        -----------------------------------------
Magnitude (a.u.)       :      1.65109
Magnitude (Debye)      :      4.19675



--------------------
Rotational spectrum 
--------------------
 
Rotational constants in cm-1:     0.000000     0.097224     0.097224 
Rotational constants in MHz :     0.000000  2914.715129  2914.715129 

 Dipole components along the rotational axes: 
x,y,z [a.u.] :    -1.651094     0.000000     0.000000 
x,y,z [Debye]:    -4.196748     0.000000     0.000000 

 

Timings for individual modules:

Sum of individual times         ...       11.745 sec (=   0.196 min)
GTO integral calculation        ...        5.100 sec (=   0.085 min)  43.4 %
SCF iterations                  ...        6.645 sec (=   0.111 min)  56.6 %
                             ****ORCA TERMINATED NORMALLY****
TOTAL RUN TIME: 0 days 0 hours 0 minutes 12 seconds 396 msec
