
                                 *****************
                                 * O   R   C   A *
                                 *****************

           --- An Ab Initio, DFT and Semiempirical electronic structure package ---

                  #######################################################
                  #                        -***-                        #
                  #          Department of theory and spectroscopy      #
                  #               Directorship: Frank Neese             #
                  #        Max Planck Institute fuer Kohlenforschung    #
                  #                Kaiser Wilhelm Platz 1               #
                  #                 D-45470 Muelheim/Ruhr               #
                  #                      Germany                        #
                  #                                                     #
                  #                  All rights reserved                #
                  #                        -***-                        #
                  #######################################################


                         Program Version 4.2.0 -  RELEASE  -


 With contributions from (in alphabetic order):
   Daniel Aravena         : Magnetic Suceptibility
   Michael Atanasov       : Ab Initio Ligand Field Theory (pilot matlab implementation)
   Alexander A. Auer      : GIAO ZORA, VPT2
   Ute Becker             : Parallelization
   Giovanni Bistoni       : ED, misc. LED, open-shell LED, HFLED
   Martin Brehm           : Molecular dynamics
   Dmytro Bykov           : SCF Hessian
   Vijay G. Chilkuri      : MRCI spin determinant printing, contributions to CSF-ICE
   Dipayan Datta          : RHF DLPNO-CCSD density
   Achintya Kumar Dutta   : EOM-CC, STEOM-CC
   Dmitry Ganyushin       : Spin-Orbit,Spin-Spin,Magnetic field MRCI
   Miquel Garcia          : C-PCM Hessian, Gaussian charge scheme
   Yang Guo               : DLPNO-NEVPT2, CIM, IAO-localization
   Andreas Hansen         : Spin unrestricted coupled pair/coupled cluster methods
   Benjamin Helmich-Paris : CASSCF linear response (MC-RPA)
   Lee Huntington         : MR-EOM, pCC
   Robert Izsak           : Overlap fitted RIJCOSX, COSX-SCS-MP3, EOM
   Christian Kollmar      : KDIIS, OOCD, Brueckner-CCSD(T), CCSD density
   Simone Kossmann        : Meta GGA functionals, TD-DFT gradient, OOMP2, MP2 Hessian
   Martin Krupicka        : AUTO-CI
   Lucas Lang             : DCDCAS
   Dagmar Lenk            : GEPOL surface, SMD
   Dimitrios Liakos       : Extrapolation schemes; Compound Job, initial MDCI parallelization
   Dimitrios Manganas     : Further ROCIS development; embedding schemes
   Dimitrios Pantazis     : SARC Basis sets
   Taras Petrenko         : DFT Hessian,TD-DFT gradient, ASA, ECA, R-Raman, ABS, FL, XAS/XES, NRVS
   Peter Pinski           : DLPNO-MP2, DLPNO-MP2 Gradient
   Christoph Reimann      : Effective Core Potentials
   Marius Retegan         : Local ZFS, SOC
   Christoph Riplinger    : Optimizer, TS searches, QM/MM, DLPNO-CCSD(T), (RO)-DLPNO pert. Triples
   Tobias Risthaus        : Range-separated hybrids, TD-DFT gradient, RPA, STAB
   Michael Roemelt        : Original ROCIS implementation
   Masaaki Saitow         : Open-shell DLPNO-CCSD energy and density
   Barbara Sandhoefer     : DKH picture change effects
   Avijit Sen             : IP-ROCIS
   Kantharuban Sivalingam : CASSCF convergence, NEVPT2, FIC-MRCI
   Bernardo de Souza      : ESD, SOC TD-DFT
   Georgi Stoychev        : AutoAux, RI-MP2 NMR
   Willem Van den Heuvel  : Paramagnetic NMR
   Boris Wezisla          : Elementary symmetry handling
   Frank Wennmohs         : Technical directorship


 We gratefully acknowledge several colleagues who have allowed us to
 interface, adapt or use parts of their codes:
   Stefan Grimme, W. Hujo, H. Kruse,             : VdW corrections, initial TS optimization,
                  C. Bannwarth                     DFT functionals, gCP, sTDA/sTD-DF
   Ed Valeev, F. Pavosevic, A. Kumar             : LibInt (2-el integral package), F12 methods
   Garnet Chan, S. Sharma, J. Yang, R. Olivares  : DMRG
   Ulf Ekstrom                                   : XCFun DFT Library
   Mihaly Kallay                                 : mrcc  (arbitrary order and MRCC methods)
   Andreas Klamt, Michael Diedenhofen            : otool_cosmo (COSMO solvation model)
   Jiri Pittner, Ondrej Demel                    : Mk-CCSD
   Frank Weinhold                                : gennbo (NPA and NBO analysis)
   Christopher J. Cramer and Donald G. Truhlar   : smd solvation model
   Lars Goerigk                                  : TD-DFT with DH, B97 family of functionals
   V. Asgeirsson, H. Jonsson                     : NEB implementation
   FAccTs GmbH                                   : IRC, NEB, NEB-TS, Multilevel, MM, QM/MM, CI optimization
   S Lehtola, MJT Oliveira, MAL Marques          : LibXC Library


 Your calculation uses the libint2 library for the computation of 2-el integrals
 For citations please refer to: http://libint.valeyev.net

 Your ORCA version has been built with support for libXC version: 4.2.3
 For citations please refer to: https://tddft.org/programs/libxc/

 This ORCA versions uses:
   CBLAS   interface :  Fast vector & matrix operations
   LAPACKE interface :  Fast linear algebra routines
   SCALAPACK package :  Parallel linear algebra routines


Your calculation utilizes the atom-pairwise dispersion correction
with the Becke-Johnson damping scheme (D3BJ)
Cite in your paper:
S.Grimme, S.Ehrlich, L.Goerigk, J Comput Chem, (2011), 32, 1456–1465 
S.Grimme, J.Antony, S.Ehrlich and H.Krieg, J.Chem.Phys., 132, (2010), 154104 
   

----- Orbital basis set information -----
Your calculation utilizes the basis: aug-cc-pVTZ 
    H, B-Ne : Obtained from the ccRepo (grant-hill.group.shef.ac.uk/ccrepo) Feb. 2017
              R. A. Kendall, T. H. Dunning, Jr., R. J. Harrison, J. Chem. Phys. 96, 6796 (1992)
         He : Obtained from the ccRepo (grant-hill.group.shef.ac.uk/ccrepo) Feb. 2017
              D. E. Woon, T. H. Dunning, Jr., J. Chem. Phys. 100, 2975 (1994)
  Li-Be, Na : Obtained from the ccRepo (grant-hill.group.shef.ac.uk/ccrepo) Feb. 2017
              B. P. Prascher, D. E. Woon, K. A. Peterson, T. H. Dunning, Jr., A. K. Wilson, Theor. Chem. Acc. 128, 69 (2011)
         Mg : Obtained from the Peterson Research Group Website (tyr0.chem.wsu.edu/~kipeters) Feb. 2017
              B. P. Prascher, D. E. Woon, K. A. Peterson, T. H. Dunning, Jr., A. K. Wilson, Theor. Chem. Acc. 128, 69 (2011)
      Al-Ar : Obtained from the ccRepo (grant-hill.group.shef.ac.uk/ccrepo) Feb. 2017
              D. E. Woon, T. H. Dunning, Jr., J. Chem. Phys. 98, 1358 (1993)
      Sc-Zn : Obtained from the ccRepo (grant-hill.group.shef.ac.uk/ccrepo) Feb. 2017
              N. B. Balabanov, K. A. Peterson, J. Chem. Phys. 123, 064107 (2005)
              N. B. Balabanov, K. A. Peterson, J. Chem. Phys. 125, 074110 (2006)
      Ga-Kr : Obtained from the ccRepo (grant-hill.group.shef.ac.uk/ccrepo) Feb. 2017
              A. K. Wilson, D. E. Woon, K. A. Peterson, T. H. Dunning, Jr., J. Chem. Phys. 110, 7667 (1999)
     Ag, Au : Obtained from the Peterson Research Group Website (tyr0.chem.wsu.edu/~kipeters) Feb. 2017
              K. A. Peterson, C. Puzzarini, Theor. Chem. Acc. 114, 283 (2005)

----- AuxJ basis set information -----
Your calculation utilizes the auxiliary basis: def2/J
   F. Weigend, Phys. Chem. Chem. Phys. 8, 1057 (2006).

================================================================================
                                        WARNINGS
                       Please study these warnings very carefully!
================================================================================


WARNING: your system is open-shell and RHF/RKS was chosen
  ===> : WILL SWITCH to UHF/UKS


INFO   : the flag for use of LIBINT has been found!

================================================================================
                                       INPUT FILE
================================================================================
NAME = 20_CrF.in
|  1> #
|  2> # 20_CrF tpss/aug-cc-pvtz
|  3> #
|  4> ! tpss d3bj aug-cc-pvtz def2/j grid4 nofinalgrid
|  5> 
|  6> *xyz 0 6
|  7>   Cr  0.00000000000000      0.00000000000000      0.10659678981823
|  8>   F   0.00000000000000      0.00000000000000      1.89340321018177
|  9> *
| 10> 
| 11> %pal
| 12> nprocs 24
| 13> end
| 14> 
| 15> 
| 16>                          ****END OF INPUT****
================================================================================

                       ****************************
                       * Single Point Calculation *
                       ****************************

---------------------------------
CARTESIAN COORDINATES (ANGSTROEM)
---------------------------------
  Cr     0.000000    0.000000    0.106597
  F      0.000000    0.000000    1.893403

----------------------------
CARTESIAN COORDINATES (A.U.)
----------------------------
  NO LB      ZA    FRAG     MASS         X           Y           Z
   0 Cr   24.0000    0    52.000    0.000000    0.000000    0.201439
   1 F     9.0000    0    18.998    0.000000    0.000000    3.578014

--------------------------------
INTERNAL COORDINATES (ANGSTROEM)
--------------------------------
 Cr     0   0   0     0.000000000000     0.00000000     0.00000000
 F      1   0   0     1.786806420364     0.00000000     0.00000000

---------------------------
INTERNAL COORDINATES (A.U.)
---------------------------
 Cr     0   0   0     0.000000000000     0.00000000     0.00000000
 F      1   0   0     3.376574788819     0.00000000     0.00000000

---------------------
BASIS SET INFORMATION
---------------------
There are 2 groups of distinct atoms

 Group   1 Type Cr  : 116s77p23d3f2g contracted to 8s7p5d3f2g pattern {19191919191911/151515151511/77711/111/11}
 Group   2 Type F   : 19s6p3d2f contracted to 5s4p3d2f pattern {88111/3111/111/11}

Atom   0Cr   basis set group =>   1
Atom   1F    basis set group =>   2
---------------------------------
AUXILIARY/J BASIS SET INFORMATION
---------------------------------
There are 2 groups of distinct atoms

 Group   1 Type Cr  : 19s5p5d3f3g contracted to 8s5p5d2f3g pattern {121111111/11111/11111/21/111}
 Group   2 Type F   : 12s5p4d2f1g contracted to 6s4p3d1f1g pattern {711111/2111/211/2/1}

Atom   0Cr   basis set group =>   1
Atom   1F    basis set group =>   2


           ************************************************************
           *        Program running with 24 parallel MPI-processes    *
           *              working on a common directory               *
           ************************************************************
------------------------------------------------------------------------------
                           ORCA GTO INTEGRAL CALCULATION
                           -- RI-GTO INTEGRALS CHOSEN --
------------------------------------------------------------------------------

                         BASIS SET STATISTICS AND STARTUP INFO

Gaussian basis set:
 # of primitive gaussian shells          ...  251
 # of primitive gaussian functions       ...  567
 # of contracted shells                  ...   39
 # of contracted basis functions         ...  139
 Highest angular momentum                ...    4
 Maximum contraction depth               ...   19
Auxiliary gaussian basis set:
 # of primitive gaussian shells          ...   59
 # of primitive gaussian functions       ...  177
 # of contracted shells                  ...   38
 # of contracted aux-basis functions     ...  138
 Highest angular momentum                ...    4
 Maximum contraction depth               ...   12
Ratio of auxiliary to basis functions    ...  0.99
Integral package used                  ... LIBINT
 One Electron integrals                  ... done
 Ordering auxiliary basis shells         ... done
 Integral threshhold             Thresh  ...  1.000e-10
 Primitive cut-off               TCut    ...  1.000e-11
 Pre-screening matrix                    ... done
 Shell pair data                         ... 
 Ordering of the shell pairs             ... done (   0.000 sec) 780 of 780 pairs
 Determination of significant pairs      ... done (   0.000 sec)
 Creation of shell pair data             ... done (   0.001 sec)
 Storage of shell pair data              ... done (   0.051 sec)
 Shell pair data done in (   0.053 sec)
 Computing two index integrals           ... done
 Cholesky decomposition of the V-matrix  ... done


Timings:
 Total evaluation time                   ...   2.745 sec (  0.046 min)
 One electron matrix time                ...   0.049 sec (  0.001 min) =  1.8%
 Schwartz matrix evaluation time         ...   2.614 sec (  0.044 min) = 95.2%
 Two index repulsion integral time       ...   0.002 sec (  0.000 min) =  0.1%
 Cholesky decomposition of V             ...   0.001 sec (  0.000 min) =  0.0%
 Three index repulsion integral time     ...   0.000 sec (  0.000 min) =  0.0%



           ************************************************************
           *        Program running with 24 parallel MPI-processes    *
           *              working on a common directory               *
           ************************************************************
-------------------------------------------------------------------------------
                                 ORCA SCF
-------------------------------------------------------------------------------

------------
SCF SETTINGS
------------
Hamiltonian:
 Density Functional     Method          .... DFT(GTOs)
 Exchange Functional    Exchange        .... TPSS
 Correlation Functional Correlation     .... TPSS
 LDA part of GGA corr.  LDAOpt          .... PW91-LDA
 Gradients option       PostSCFGGA      .... off
   Density functional embedding theory  .... OFF
   NL short-range parameter             ....  5.000000
 RI-approximation to the Coulomb term is turned on
   Number of auxiliary basis functions  .... 138


General Settings:
 Integral files         IntName         .... 20_CrF
 Hartree-Fock type      HFTyp           .... UHF
 Total Charge           Charge          ....    0
 Multiplicity           Mult            ....    6
 Number of Electrons    NEL             ....   33
 Basis Dimension        Dim             ....  139
 Nuclear Repulsion      ENuc            ....     63.9701512655 Eh

Convergence Acceleration:
 DIIS                   CNVDIIS         .... on
   Start iteration      DIISMaxIt       ....    12
   Startup error        DIISStart       ....  0.200000
   # of expansion vecs  DIISMaxEq       ....     5
   Bias factor          DIISBfac        ....   1.050
   Max. coefficient     DIISMaxC        ....  10.000
 Newton-Raphson         CNVNR           .... off
 SOSCF                  CNVSOSCF        .... off
 Level Shifting         CNVShift        .... on
   Level shift para.    LevelShift      ....    0.2500
   Turn off err/grad.   ShiftErr        ....    0.0010
 Zerner damping         CNVZerner       .... off
 Static damping         CNVDamp         .... on
   Fraction old density DampFac         ....    0.7000
   Max. Damping (<1)    DampMax         ....    0.9800
   Min. Damping (>=0)   DampMin         ....    0.0000
   Turn off err/grad.   DampErr         ....    0.1000
 Fernandez-Rico         CNVRico         .... off

SCF Procedure:
 Maximum # iterations   MaxIter         ....   125
 SCF integral mode      SCFMode         .... Direct
   Integral package                     .... LIBINT
 Reset frequency        DirectResetFreq ....    20
 Integral Threshold     Thresh          ....  1.000e-10 Eh
 Primitive CutOff       TCut            ....  1.000e-11 Eh

Convergence Tolerance:
 Convergence Check Mode ConvCheckMode   .... Total+1el-Energy
 Convergence forced     ConvForced      .... 0
 Energy Change          TolE            ....  1.000e-06 Eh
 1-El. energy change                    ....  1.000e-03 Eh
 DIIS Error             TolErr          ....  1.000e-06


Diagonalization of the overlap matrix:
Smallest eigenvalue                        ... 8.925e-05
Time for diagonalization                   ...    0.005 sec
Threshold for overlap eigenvalues          ... 1.000e-08
Number of eigenvalues below threshold      ... 0
Time for construction of square roots      ...    0.002 sec
Total time needed                          ...    0.007 sec

-------------------
DFT GRID GENERATION
-------------------

General Integration Accuracy     IntAcc      ...  4.670
Radial Grid Type                 RadialGrid  ... Gauss-Chebyshev
Angular Grid (max. acc.)         AngularGrid ... Lebedev-302
Angular grid pruning method      GridPruning ... 3 (G Style)
Weight generation scheme         WeightScheme... Becke
Basis function cutoff            BFCut       ...    1.0000e-10
Integration weight cutoff        WCut        ...    1.0000e-14
Grids for H and He will be reduced by one unit

# of grid points (after initial pruning)     ...  15936 (   0.0 sec)
# of grid points (after weights+screening)   ...  15887 (   0.0 sec)
nearest neighbour list constructed           ...    0.0 sec
Grid point re-assignment to atoms done       ...    0.0 sec
Grid point division into batches done        ...    0.1 sec
Reduced shell lists constructed in    0.1 sec

Total number of grid points                  ...    15887
Total number of batches                      ...      250
Average number of points per batch           ...       63
Average number of grid points per atom       ...     7944
Average number of shells per batch           ...    14.42 (36.97%)
Average number of basis functions per batch  ...    37.92 (27.28%)
Average number of large shells per batch     ...     8.25 (57.23%)
Average number of large basis fcns per batch ...    22.92 (60.44%)
Maximum spatial batch extension              ...  28.57, 31.41, 18.50 au
Average spatial batch extension              ...   0.88,  0.94,  0.67 au

Time for grid setup =    0.147 sec

------------------------------
INITIAL GUESS: MODEL POTENTIAL
------------------------------
Loading Hartree-Fock densities                     ... done
Calculating cut-offs                               ... done
Setting up the integral package                    ... done
Initializing the effective Hamiltonian             ... done
Starting the Coulomb interaction                   ... done (   0.0 sec)
Reading the grid                                   ... done
Mapping shells                                     ... done
Starting the XC term evaluation                    ... done (   0.0 sec)
  promolecular density results
     # of electrons  =     33.000003309
     EX              =    -57.162083008
     EC              =     -1.320798705
     EX+EC           =    -58.482881713
Transforming the Hamiltonian                       ... done (   0.0 sec)
Diagonalizing the Hamiltonian                      ... done (   0.0 sec)
Back transforming the eigenvectors                 ... done (   0.0 sec)
Now organizing SCF variables                       ... done
                      ------------------
                      INITIAL GUESS DONE (   0.3 sec)
                      ------------------
--------------
SCF ITERATIONS
--------------
ITER       Energy         Delta-E        Max-DP      RMS-DP      [F,P]     Damp
               ***  Starting incremental Fock matrix formation  ***
  0  -1144.3519685683   0.000000000000 0.07045549  0.00149502  0.2849387 0.7000
  1  -1144.3981339963  -0.046165428022 0.04101535  0.00066082  0.0622870 0.7000
                               ***Turning on DIIS***
  2  -1144.4098595227  -0.011725526374 0.12632168  0.00165218  0.0283476 0.0000
  3  -1144.4373302576  -0.027470734884 0.02073396  0.00046694  0.0348102 0.0000
  4  -1144.4414023562  -0.004072098632 0.00967029  0.00024215  0.0346850 0.0000
  5  -1144.4428367280  -0.001434371799 0.01312847  0.00025433  0.0055756 0.0000
  6  -1144.4430951824  -0.000258454426 0.00362172  0.00006605  0.0018903 0.0000
  7  -1144.4431503592  -0.000055176775 0.00455770  0.00005485  0.0010958 0.0000
  8  -1144.4431693008  -0.000018941609 0.01150009  0.00009797  0.0006062 0.0000
  9  -1144.4431812714  -0.000011970553 0.00075798  0.00001457  0.0017181 0.0000
 10  -1144.4431863222  -0.000005050858 0.00212122  0.00001726  0.0008785 0.0000
 11  -1144.4431880329  -0.000001710672 0.00082000  0.00000613  0.0002576 0.0000
 12  -1144.4431886666  -0.000000633748 0.00003036  0.00000063  0.0000605 0.0000
                 **** Energy Check signals convergence ****

               *****************************************************
               *                     SUCCESS                       *
               *           SCF CONVERGED AFTER  13 CYCLES          *
               *****************************************************


----------------
TOTAL SCF ENERGY
----------------

Total Energy       :        -1144.44318874 Eh          -31141.88239 eV

Components:
Nuclear Repulsion  :           63.97015127 Eh            1740.71631 eV
Electronic Energy  :        -1208.41334000 Eh          -32882.59870 eV
One Electron Energy:        -1705.27797801 Eh          -46402.97286 eV
Two Electron Energy:          496.86463800 Eh           13520.37416 eV

Virial components:
Potential Energy   :        -2286.68206132 Eh          -62223.78228 eV
Kinetic Energy     :         1142.23887258 Eh           31081.89990 eV
Virial Ratio       :            2.00192982


DFT components:
N(Alpha)           :       19.000008553856 electrons
N(Beta)            :       14.000008556226 electrons
N(Total)           :       33.000017110082 electrons
E(X)               :      -57.920055008850 Eh       
E(C)               :       -1.314632262985 Eh       
E(XC)              :      -59.234687271834 Eh       
DFET-embed. en.    :        0.000000000000 Eh       

---------------
SCF CONVERGENCE
---------------

  Last Energy change         ...   -7.2487e-08  Tolerance :   1.0000e-06
  Last MAX-Density change    ...    1.8284e-05  Tolerance :   1.0000e-05
  Last RMS-Density change    ...    1.9666e-07  Tolerance :   1.0000e-06
  Last DIIS Error            ...    3.5549e-05  Tolerance :   1.0000e-06

             **** THE GBW FILE WAS UPDATED (20_CrF.gbw) ****
             **** DENSITY FILE WAS UPDATED (20_CrF.scfp) ****
             **** ENERGY FILE WAS UPDATED (20_CrF.en.tmp) ****
----------------------
UHF SPIN CONTAMINATION
----------------------

Warning: in a DFT calculation there is little theoretical justification to 
         calculate <S**2> as in Hartree-Fock theory. We will do it anyways
         but you should keep in mind that the values have only limited relevance

Expectation value of <S**2>     :     8.760956
Ideal value S*(S+1) for S=2.5   :     8.750000
Deviation                       :     0.010956

             **** THE GBW FILE WAS UPDATED (20_CrF.gbw) ****
             **** DENSITY FILE WAS UPDATED (20_CrF.scfp) ****
----------------
ORBITAL ENERGIES
----------------
                 SPIN UP ORBITALS
  NO   OCC          E(Eh)            E(eV) 
   0   1.0000    -214.929660     -5848.5334 
   1   1.0000     -24.340165      -662.3296 
   2   1.0000     -24.332121      -662.1107 
   3   1.0000     -20.636519      -561.5482 
   4   1.0000     -20.633872      -561.4762 
   5   1.0000     -20.633872      -561.4762 
   6   1.0000      -2.795786       -76.0772 
   7   1.0000      -1.775334       -48.3093 
   8   1.0000      -1.767031       -48.0834 
   9   1.0000      -1.767031       -48.0834 
  10   1.0000      -1.013793       -27.5867 
  11   1.0000      -0.345245        -9.3946 
  12   1.0000      -0.320283        -8.7154 
  13   1.0000      -0.320283        -8.7154 
  14   1.0000      -0.187799        -5.1103 
  15   1.0000      -0.187799        -5.1103 
  16   1.0000      -0.179093        -4.8734 
  17   1.0000      -0.179093        -4.8734 
  18   1.0000      -0.178881        -4.8676 
  19   0.0000      -0.114904        -3.1267 
  20   0.0000      -0.037887        -1.0310 
  21   0.0000      -0.037887        -1.0310 
  22   0.0000      -0.000219        -0.0059 
  23   0.0000       0.004156         0.1131 
  24   0.0000       0.025233         0.6866 
  25   0.0000       0.025233         0.6866 
  26   0.0000       0.041269         1.1230 
  27   0.0000       0.041270         1.1230 
  28   0.0000       0.046821         1.2741 
  29   0.0000       0.046821         1.2741 
  30   0.0000       0.047256         1.2859 
  31   0.0000       0.061466         1.6726 
  32   0.0000       0.103943         2.8284 
  33   0.0000       0.135206         3.6791 
  34   0.0000       0.135206         3.6791 
  35   0.0000       0.178493         4.8570 
  36   0.0000       0.189085         5.1453 
  37   0.0000       0.189085         5.1453 
  38   0.0000       0.210564         5.7297 
  39   0.0000       0.210564         5.7297 
  40   0.0000       0.226117         6.1530 
  41   0.0000       0.226469         6.1625 
  42   0.0000       0.226469         6.1625 
  43   0.0000       0.257257         7.0003 
  44   0.0000       0.439990        11.9727 
  45   0.0000       0.490922        13.3587 
  46   0.0000       0.490924        13.3587 
  47   0.0000       0.498826        13.5737 
  48   0.0000       0.498826        13.5737 
  49   0.0000       0.568119        15.4593 
  50   0.0000       0.568119        15.4593 
  51   0.0000       0.598751        16.2929 
  52   0.0000       0.610379        16.6093 
  53   0.0000       0.610379        16.6093 
  54   0.0000       0.646480        17.5916 
  55   0.0000       0.754487        20.5306 
  56   0.0000       0.754490        20.5307 
  57   0.0000       0.758998        20.6534 
  58   0.0000       0.758998        20.6534 
  59   0.0000       0.879733        23.9388 
  60   0.0000       0.887083        24.1388 
  61   0.0000       0.887095        24.1391 
  62   0.0000       0.962620        26.1942 
  63   0.0000       0.962620        26.1942 
  64   0.0000       1.057905        28.7871 
  65   0.0000       1.305859        35.5342 
  66   0.0000       1.311259        35.6812 
  67   0.0000       1.311259        35.6812 
  68   0.0000       1.569756        42.7152 
  69   0.0000       1.696527        46.1648 
  70   0.0000       1.696529        46.1649 
  71   0.0000       1.714491        46.6537 
  72   0.0000       1.714491        46.6537 
  73   0.0000       1.760370        47.9021 
  74   0.0000       1.760370        47.9021 
  75   0.0000       1.796881        48.8956 
  76   0.0000       2.085082        56.7380 
  77   0.0000       2.085082        56.7380 
  78   0.0000       2.113261        57.5048 
  79   0.0000       2.113278        57.5052 
  80   0.0000       2.122768        57.7635 
  81   0.0000       2.122777        57.7637 
  82   0.0000       2.160453        58.7889 
  83   0.0000       2.203971        59.9731 
  84   0.0000       2.203971        59.9731 
  85   0.0000       2.328653        63.3659 
  86   0.0000       2.328653        63.3659 
  87   0.0000       2.474264        67.3282 
  88   0.0000       2.504305        68.1456 
  89   0.0000       2.616317        71.1936 
  90   0.0000       2.616406        71.1960 
  91   0.0000       2.701138        73.5017 
  92   0.0000       2.701138        73.5017 
  93   0.0000       2.906018        79.0768 
  94   0.0000       2.906018        79.0768 
  95   0.0000       3.006130        81.8010 
  96   0.0000       3.069912        83.5366 
  97   0.0000       3.069955        83.5377 
  98   0.0000       3.213572        87.4457 
  99   0.0000       3.213578        87.4459 
 100   0.0000       3.329367        90.5967 
 101   0.0000       3.329367        90.5967 
 102   0.0000       3.477617        94.6308 
 103   0.0000       3.640035        99.0504 
 104   0.0000       3.640035        99.0504 
 105   0.0000       4.251466       115.6883 
 106   0.0000       4.850840       131.9981 
 107   0.0000       4.850840       131.9981 
 108   0.0000       5.237557       142.5212 
 109   0.0000       6.032178       164.1439 
 110   0.0000       6.032178       164.1439 
 111   0.0000       6.035305       164.2290 
 112   0.0000       6.035324       164.2295 
 113   0.0000       6.221846       169.3050 
 114   0.0000       6.221846       169.3050 
 115   0.0000       6.345907       172.6809 
 116   0.0000       6.556532       178.4123 
 117   0.0000       6.556594       178.4140 
 118   0.0000       6.557795       178.4467 
 119   0.0000       6.557795       178.4467 
 120   0.0000       6.642614       180.7547 
 121   0.0000       6.642620       180.7549 
 122   0.0000       6.804927       185.1715 
 123   0.0000       6.804927       185.1715 
 124   0.0000       6.915653       188.1845 
 125   0.0000       7.736497       210.5208 
 126   0.0000       8.377083       227.9520 
 127   0.0000       8.377083       227.9520 
 128   0.0000       8.505671       231.4511 
 129   0.0000       8.506331       231.4690 
 130   0.0000       8.738981       237.7998 
 131   0.0000       8.739617       237.8171 
 132   0.0000       8.812978       239.8133 
 133   0.0000       8.812978       239.8133 
 134   0.0000       8.823722       240.1057 
 135   0.0000       8.887458       241.8400 
 136   0.0000       8.887458       241.8400 
 137   0.0000       9.127190       248.3635 
 138   0.0000      13.083199       356.0120 

                 SPIN DOWN ORBITALS
  NO   OCC          E(Eh)            E(eV) 
   0   1.0000    -214.928670     -5848.5065 
   1   1.0000     -24.339893      -662.3222 
   2   1.0000     -24.280001      -660.6924 
   3   1.0000     -20.599339      -560.5365 
   4   1.0000     -20.589274      -560.2626 
   5   1.0000     -20.589274      -560.2626 
   6   1.0000      -2.643152       -71.9238 
   7   1.0000      -1.634221       -44.4694 
   8   1.0000      -1.606575       -43.7171 
   9   1.0000      -1.606575       -43.7171 
  10   1.0000      -1.011930       -27.5360 
  11   1.0000      -0.339833        -9.2473 
  12   1.0000      -0.307372        -8.3640 
  13   1.0000      -0.307372        -8.3640 
  14   0.0000      -0.091470        -2.4890 
  15   0.0000      -0.042702        -1.1620 
  16   0.0000      -0.042678        -1.1613 
  17   0.0000      -0.041115        -1.1188 
  18   0.0000      -0.037923        -1.0319 
  19   0.0000      -0.037923        -1.0319 
  20   0.0000       0.009914         0.2698 
  21   0.0000       0.009915         0.2698 
  22   0.0000       0.018569         0.5053 
  23   0.0000       0.021009         0.5717 
  24   0.0000       0.048879         1.3301 
  25   0.0000       0.048880         1.3301 
  26   0.0000       0.066416         1.8073 
  27   0.0000       0.066419         1.8073 
  28   0.0000       0.067341         1.8324 
  29   0.0000       0.069371         1.8877 
  30   0.0000       0.069388         1.8882 
  31   0.0000       0.077267         2.1025 
  32   0.0000       0.142404         3.8750 
  33   0.0000       0.180247         4.9048 
  34   0.0000       0.180248         4.9048 
  35   0.0000       0.209400         5.6981 
  36   0.0000       0.231117         6.2890 
  37   0.0000       0.231118         6.2890 
  38   0.0000       0.239424         6.5150 
  39   0.0000       0.239524         6.5178 
  40   0.0000       0.239628         6.5206 
  41   0.0000       0.255165         6.9434 
  42   0.0000       0.255165         6.9434 
  43   0.0000       0.289812         7.8862 
  44   0.0000       0.471612        12.8332 
  45   0.0000       0.532207        14.4821 
  46   0.0000       0.532208        14.4821 
  47   0.0000       0.554657        15.0930 
  48   0.0000       0.554657        15.0930 
  49   0.0000       0.635517        17.2933 
  50   0.0000       0.635517        17.2933 
  51   0.0000       0.647233        17.6121 
  52   0.0000       0.647233        17.6121 
  53   0.0000       0.654414        17.8075 
  54   0.0000       0.684569        18.6281 
  55   0.0000       0.825414        22.4606 
  56   0.0000       0.825414        22.4606 
  57   0.0000       0.827346        22.5132 
  58   0.0000       0.827361        22.5137 
  59   0.0000       0.884755        24.0754 
  60   0.0000       0.912989        24.8437 
  61   0.0000       0.913029        24.8448 
  62   0.0000       0.969333        26.3769 
  63   0.0000       0.969334        26.3769 
  64   0.0000       1.111455        30.2442 
  65   0.0000       1.314208        35.7614 
  66   0.0000       1.347302        36.6619 
  67   0.0000       1.347302        36.6619 
  68   0.0000       1.646434        44.8017 
  69   0.0000       1.797981        48.9256 
  70   0.0000       1.797995        48.9259 
  71   0.0000       1.821987        49.5788 
  72   0.0000       1.821987        49.5788 
  73   0.0000       1.825352        49.6704 
  74   0.0000       1.825352        49.6704 
  75   0.0000       1.859175        50.5907 
  76   0.0000       2.158626        58.7392 
  77   0.0000       2.158626        58.7392 
  78   0.0000       2.171938        59.1014 
  79   0.0000       2.171941        59.1015 
  80   0.0000       2.188541        59.5532 
  81   0.0000       2.188553        59.5535 
  82   0.0000       2.218150        60.3589 
  83   0.0000       2.286612        62.2219 
  84   0.0000       2.286612        62.2219 
  85   0.0000       2.395284        65.1790 
  86   0.0000       2.395284        65.1790 
  87   0.0000       2.515629        68.4537 
  88   0.0000       2.539765        69.1105 
  89   0.0000       2.623416        71.3868 
  90   0.0000       2.623497        71.3890 
  91   0.0000       2.709849        73.7388 
  92   0.0000       2.709849        73.7388 
  93   0.0000       2.920352        79.4668 
  94   0.0000       2.920352        79.4668 
  95   0.0000       3.046738        82.9060 
  96   0.0000       3.097683        84.2922 
  97   0.0000       3.097742        84.2938 
  98   0.0000       3.338963        90.8578 
  99   0.0000       3.338966        90.8579 
 100   0.0000       3.453794        93.9825 
 101   0.0000       3.453794        93.9825 
 102   0.0000       3.512856        95.5897 
 103   0.0000       3.673854        99.9706 
 104   0.0000       3.673854        99.9706 
 105   0.0000       4.321039       117.5814 
 106   0.0000       4.855262       132.1184 
 107   0.0000       4.855262       132.1184 
 108   0.0000       5.260353       143.1415 
 109   0.0000       6.208618       168.9451 
 110   0.0000       6.208618       168.9451 
 111   0.0000       6.226370       169.4281 
 112   0.0000       6.226380       169.4284 
 113   0.0000       6.379546       173.5963 
 114   0.0000       6.379546       173.5963 
 115   0.0000       6.473058       176.1409 
 116   0.0000       6.677683       181.7090 
 117   0.0000       6.677733       181.7103 
 118   0.0000       6.685476       181.9211 
 119   0.0000       6.685476       181.9211 
 120   0.0000       6.760022       183.9496 
 121   0.0000       6.760025       183.9496 
 122   0.0000       6.913408       188.1234 
 123   0.0000       6.913408       188.1234 
 124   0.0000       7.015401       190.8988 
 125   0.0000       7.874255       214.2694 
 126   0.0000       8.380181       228.0363 
 127   0.0000       8.380181       228.0363 
 128   0.0000       8.507961       231.5134 
 129   0.0000       8.508595       231.5306 
 130   0.0000       8.744713       237.9557 
 131   0.0000       8.745340       237.9728 
 132   0.0000       8.816294       239.9036 
 133   0.0000       8.816294       239.9036 
 134   0.0000       8.830904       240.3011 
 135   0.0000       8.888689       241.8735 
 136   0.0000       8.888689       241.8735 
 137   0.0000       9.132311       248.5028 
 138   0.0000      13.091570       356.2397 

                    ********************************
                    * MULLIKEN POPULATION ANALYSIS *
                    ********************************

--------------------------------------------
MULLIKEN ATOMIC CHARGES AND SPIN POPULATIONS
--------------------------------------------
   0 Cr:    0.547890    5.023837
   1 F :   -0.547890   -0.023837
Sum of atomic charges         :    0.0000000
Sum of atomic spin populations:    5.0000000

-----------------------------------------------------
MULLIKEN REDUCED ORBITAL CHARGES AND SPIN POPULATIONS
-----------------------------------------------------
CHARGE
  0 Crs       :     6.695054  s :     6.695054
      pz      :     4.025619  p :    12.115946
      px      :     4.045164
      py      :     4.045164
      dz2     :     0.578399  d :     4.621853
      dxz     :     1.022439
      dyz     :     1.022439
      dx2y2   :     0.999288
      dxy     :     0.999288
      f0      :     0.005576  f :     0.013991
      f+1     :     0.003973
      f-1     :     0.003973
      f+2     :     0.000234
      f-2     :     0.000234
      f+3     :     0.000000
      f-3     :     0.000000
      g0      :     0.002154  g :     0.005266
      g+1     :     0.001555
      g-1     :     0.001555
      g+2     :     0.000001
      g-2     :     0.000001
      g+3     :     0.000000
      g-3     :     0.000000
      g+4     :     0.000000
      g-4     :     0.000000
  1 F s       :     3.974679  s :     3.974679
      pz      :     1.715621  p :     5.561023
      px      :     1.922701
      py      :     1.922701
      dz2     :     0.002296  d :     0.010318
      dxz     :     0.003608
      dyz     :     0.003608
      dx2y2   :     0.000402
      dxy     :     0.000403
      f0      :     0.000601  f :     0.001870
      f+1     :     0.000560
      f-1     :     0.000560
      f+2     :     0.000074
      f-2     :     0.000074
      f+3     :     0.000000
      f-3     :     0.000000

SPIN
  0 Crs       :     0.643474  s :     0.643474
      pz      :     0.013978  p :     0.077414
      px      :     0.031718
      py      :     0.031718
      dz2     :     0.418567  d :     4.300562
      dxz     :     0.941710
      dyz     :     0.941710
      dx2y2   :     0.999288
      dxy     :     0.999288
      f0      :    -0.000759  f :     0.003140
      f+1     :     0.001715
      f-1     :     0.001715
      f+2     :     0.000234
      f-2     :     0.000234
      f+3     :    -0.000000
      f-3     :    -0.000000
      g0      :    -0.000688  g :    -0.000753
      g+1     :    -0.000034
      g-1     :    -0.000034
      g+2     :     0.000001
      g-2     :     0.000001
      g+3     :     0.000000
      g-3     :     0.000000
      g+4     :     0.000000
      g-4     :     0.000000
  1 F s       :    -0.012555  s :    -0.012555
      pz      :    -0.061929  p :    -0.012586
      px      :     0.024671
      py      :     0.024671
      dz2     :    -0.000052  d :     0.000801
      dxz     :     0.000024
      dyz     :     0.000024
      dx2y2   :     0.000402
      dxy     :     0.000403
      f0      :    -0.000035  f :     0.000503
      f+1     :     0.000195
      f-1     :     0.000195
      f+2     :     0.000074
      f-2     :     0.000074
      f+3     :     0.000000
      f-3     :     0.000000


                     *******************************
                     * LOEWDIN POPULATION ANALYSIS *
                     *******************************

-------------------------------------------
LOEWDIN ATOMIC CHARGES AND SPIN POPULATIONS
-------------------------------------------
   0 Cr:    0.365073    4.862598
   1 F :   -0.365073    0.137402

----------------------------------------------------
LOEWDIN REDUCED ORBITAL CHARGES AND SPIN POPULATIONS
----------------------------------------------------
CHARGE
  0 Crs       :     6.485344  s :     6.485344
      pz      :     4.059770  p :    12.165888
      px      :     4.053059
      py      :     4.053059
      dz2     :     0.677517  d :     4.696732
      dxz     :     1.014818
      dyz     :     1.014818
      dx2y2   :     0.994789
      dxy     :     0.994789
      f0      :     0.099886  f :     0.233475
      f+1     :     0.066255
      f-1     :     0.066255
      f+2     :     0.000539
      f-2     :     0.000539
      f+3     :     0.000000
      f-3     :     0.000000
      g0      :     0.022936  g :     0.053489
      g+1     :     0.015247
      g-1     :     0.015247
      g+2     :     0.000030
      g-2     :     0.000030
      g+3     :     0.000000
      g-3     :     0.000000
      g+4     :     0.000000
      g-4     :     0.000000
  1 F s       :     3.693857  s :     3.693857
      pz      :     1.840496  p :     5.435460
      px      :     1.797482
      py      :     1.797482
      dz2     :     0.101097  d :     0.195878
      dxz     :     0.043805
      dyz     :     0.043805
      dx2y2   :     0.003585
      dxy     :     0.003585
      f0      :     0.019096  f :     0.039879
      f+1     :     0.009335
      f-1     :     0.009335
      f+2     :     0.001056
      f-2     :     0.001056
      f+3     :     0.000000
      f-3     :     0.000000

SPIN
  0 Crs       :     0.571481  s :     0.571481
      pz      :     0.015325  p :     0.109781
      px      :     0.047228
      py      :     0.047228
      dz2     :     0.399805  d :     4.162712
      dxz     :     0.886665
      dyz     :     0.886665
      dx2y2   :     0.994789
      dxy     :     0.994789
      f0      :    -0.000482  f :     0.016804
      f+1     :     0.008104
      f-1     :     0.008104
      f+2     :     0.000539
      f-2     :     0.000539
      f+3     :    -0.000000
      f-3     :    -0.000000
      g0      :    -0.001115  g :     0.001819
      g+1     :     0.001437
      g-1     :     0.001437
      g+2     :     0.000030
      g-2     :     0.000030
      g+3     :     0.000000
      g-3     :     0.000000
      g+4     :     0.000000
      g-4     :     0.000000
  1 F s       :     0.017157  s :     0.017157
      pz      :    -0.003871  p :     0.045027
      px      :     0.024449
      py      :     0.024449
      dz2     :     0.000323  d :     0.058839
      dxz     :     0.025673
      dyz     :     0.025673
      dx2y2   :     0.003585
      dxy     :     0.003585
      f0      :     0.001377  f :     0.016380
      f+1     :     0.006445
      f-1     :     0.006445
      f+2     :     0.001056
      f-2     :     0.001056
      f+3     :     0.000000
      f-3     :     0.000000


                      *****************************
                      * MAYER POPULATION ANALYSIS *
                      *****************************

  NA   - Mulliken gross atomic population
  ZA   - Total nuclear charge
  QA   - Mulliken gross atomic charge
  VA   - Mayer's total valence
  BVA  - Mayer's bonded valence
  FA   - Mayer's free valence

  ATOM       NA         ZA         QA         VA         BVA        FA
  0 Cr    23.4521    24.0000     0.5479     5.6340     0.7484     4.8856
  1 F      9.5479     9.0000    -0.5479     0.7525     0.7484     0.0041

  Mayer bond orders larger than 0.100000
B(  0-Cr,  1-F ) :   0.7484 

-------
TIMINGS
-------

Total SCF time: 0 days 0 hours 0 min 2 sec 

Total time                  ....       2.888 sec
Sum of individual times     ....       2.743 sec  ( 95.0%)

Fock matrix formation       ....       2.373 sec  ( 82.2%)
  Split-RI-J                ....       1.800 sec  ( 75.9% of F)
  XC integration            ....       0.509 sec  ( 21.4% of F)
    Basis function eval.    ....       0.065 sec  ( 12.7% of XC)
    Density eval.           ....       0.073 sec  ( 14.3% of XC)
    XC-Functional eval.     ....       0.019 sec  (  3.7% of XC)
    XC-Potential eval.      ....       0.205 sec  ( 40.3% of XC)
Diagonalization             ....       0.068 sec  (  2.4%)
Density matrix formation    ....       0.009 sec  (  0.3%)
Population analysis         ....       0.007 sec  (  0.2%)
Initial guess               ....       0.114 sec  (  3.9%)
Orbital Transformation      ....       0.000 sec  (  0.0%)
Orbital Orthonormalization  ....       0.000 sec  (  0.0%)
DIIS solution               ....       0.026 sec  (  0.9%)
Grid generation             ....       0.147 sec  (  5.1%)


-------------------------------------------------------------------------------
                          DFT DISPERSION CORRECTION                            
                                                                               
                              DFTD3 V3.1  Rev 1                                
                          USING Becke-Johnson damping                          
-------------------------------------------------------------------------------
The TPSS functional is recognized
Active option DFTDOPT                   ...         4   

molecular C6(AA) [au] = 448.208639 


            DFT-D V3
 parameters
 s6 scaling factor         :     1.0000 
 a1 scaling factor         :     0.4535 
 s8 scaling factor         :     1.9435 
 a2 scaling factor         :     4.4752 
 ad hoc parameters k1-k3   :    16.0000     1.3333    -4.0000 

 Edisp/kcal,au: -0.384284861018  -0.000612396842 
 E6   /kcal   :  -0.157066956 
 E8   /kcal   :  -0.227217905 
 % E8         :  59.127467230 

-------------------------   ----------------
Dispersion correction           -0.000612397
-------------------------   ----------------


-------------------------   --------------------
FINAL SINGLE POINT ENERGY     -1144.443801135961
-------------------------   --------------------


                            ***************************************
                            *     ORCA property calculations      *
                            ***************************************

                                    ---------------------
                                    Active property flags
                                    ---------------------
   (+) Dipole Moment


------------------------------------------------------------------------------
                       ORCA ELECTRIC PROPERTIES CALCULATION
------------------------------------------------------------------------------

Dipole Moment Calculation                       ... on
Quadrupole Moment Calculation                   ... off
Polarizability Calculation                      ... off
GBWName                                         ... 20_CrF.gbw
Electron density file                           ... 20_CrF.scfp
The origin for moment calculation is the CENTER OF MASS  = ( 0.000000,  0.000000  1.104960)

-------------
DIPOLE MOMENT
-------------
                                X             Y             Z
Electronic contribution:      0.00000      -0.00000      -2.01953
Nuclear contribution   :      0.00000       0.00000       0.57299
                        -----------------------------------------
Total Dipole Moment    :      0.00000      -0.00000      -1.44654
                        -----------------------------------------
Magnitude (a.u.)       :      1.44654
Magnitude (Debye)      :      3.67682



--------------------
Rotational spectrum 
--------------------
 
Rotational constants in cm-1:     0.000000     0.379469     0.379469 
Rotational constants in MHz :     0.000000 11376.206933 11376.206933 

 Dipole components along the rotational axes: 
x,y,z [a.u.] :    -1.446544    -0.000000     0.000000 
x,y,z [Debye]:    -3.676822    -0.000000     0.000001 

 

Timings for individual modules:

Sum of individual times         ...        6.449 sec (=   0.107 min)
GTO integral calculation        ...        3.229 sec (=   0.054 min)  50.1 %
SCF iterations                  ...        3.220 sec (=   0.054 min)  49.9 %
                             ****ORCA TERMINATED NORMALLY****
TOTAL RUN TIME: 0 days 0 hours 0 minutes 7 seconds 24 msec
