
                                 *****************
                                 * O   R   C   A *
                                 *****************

           --- An Ab Initio, DFT and Semiempirical electronic structure package ---

                  #######################################################
                  #                        -***-                        #
                  #          Department of theory and spectroscopy      #
                  #               Directorship: Frank Neese             #
                  #        Max Planck Institute fuer Kohlenforschung    #
                  #                Kaiser Wilhelm Platz 1               #
                  #                 D-45470 Muelheim/Ruhr               #
                  #                      Germany                        #
                  #                                                     #
                  #                  All rights reserved                #
                  #                        -***-                        #
                  #######################################################


                         Program Version 4.2.0 -  RELEASE  -


 With contributions from (in alphabetic order):
   Daniel Aravena         : Magnetic Suceptibility
   Michael Atanasov       : Ab Initio Ligand Field Theory (pilot matlab implementation)
   Alexander A. Auer      : GIAO ZORA, VPT2
   Ute Becker             : Parallelization
   Giovanni Bistoni       : ED, misc. LED, open-shell LED, HFLED
   Martin Brehm           : Molecular dynamics
   Dmytro Bykov           : SCF Hessian
   Vijay G. Chilkuri      : MRCI spin determinant printing, contributions to CSF-ICE
   Dipayan Datta          : RHF DLPNO-CCSD density
   Achintya Kumar Dutta   : EOM-CC, STEOM-CC
   Dmitry Ganyushin       : Spin-Orbit,Spin-Spin,Magnetic field MRCI
   Miquel Garcia          : C-PCM Hessian, Gaussian charge scheme
   Yang Guo               : DLPNO-NEVPT2, CIM, IAO-localization
   Andreas Hansen         : Spin unrestricted coupled pair/coupled cluster methods
   Benjamin Helmich-Paris : CASSCF linear response (MC-RPA)
   Lee Huntington         : MR-EOM, pCC
   Robert Izsak           : Overlap fitted RIJCOSX, COSX-SCS-MP3, EOM
   Christian Kollmar      : KDIIS, OOCD, Brueckner-CCSD(T), CCSD density
   Simone Kossmann        : Meta GGA functionals, TD-DFT gradient, OOMP2, MP2 Hessian
   Martin Krupicka        : AUTO-CI
   Lucas Lang             : DCDCAS
   Dagmar Lenk            : GEPOL surface, SMD
   Dimitrios Liakos       : Extrapolation schemes; Compound Job, initial MDCI parallelization
   Dimitrios Manganas     : Further ROCIS development; embedding schemes
   Dimitrios Pantazis     : SARC Basis sets
   Taras Petrenko         : DFT Hessian,TD-DFT gradient, ASA, ECA, R-Raman, ABS, FL, XAS/XES, NRVS
   Peter Pinski           : DLPNO-MP2, DLPNO-MP2 Gradient
   Christoph Reimann      : Effective Core Potentials
   Marius Retegan         : Local ZFS, SOC
   Christoph Riplinger    : Optimizer, TS searches, QM/MM, DLPNO-CCSD(T), (RO)-DLPNO pert. Triples
   Tobias Risthaus        : Range-separated hybrids, TD-DFT gradient, RPA, STAB
   Michael Roemelt        : Original ROCIS implementation
   Masaaki Saitow         : Open-shell DLPNO-CCSD energy and density
   Barbara Sandhoefer     : DKH picture change effects
   Avijit Sen             : IP-ROCIS
   Kantharuban Sivalingam : CASSCF convergence, NEVPT2, FIC-MRCI
   Bernardo de Souza      : ESD, SOC TD-DFT
   Georgi Stoychev        : AutoAux, RI-MP2 NMR
   Willem Van den Heuvel  : Paramagnetic NMR
   Boris Wezisla          : Elementary symmetry handling
   Frank Wennmohs         : Technical directorship


 We gratefully acknowledge several colleagues who have allowed us to
 interface, adapt or use parts of their codes:
   Stefan Grimme, W. Hujo, H. Kruse,             : VdW corrections, initial TS optimization,
                  C. Bannwarth                     DFT functionals, gCP, sTDA/sTD-DF
   Ed Valeev, F. Pavosevic, A. Kumar             : LibInt (2-el integral package), F12 methods
   Garnet Chan, S. Sharma, J. Yang, R. Olivares  : DMRG
   Ulf Ekstrom                                   : XCFun DFT Library
   Mihaly Kallay                                 : mrcc  (arbitrary order and MRCC methods)
   Andreas Klamt, Michael Diedenhofen            : otool_cosmo (COSMO solvation model)
   Jiri Pittner, Ondrej Demel                    : Mk-CCSD
   Frank Weinhold                                : gennbo (NPA and NBO analysis)
   Christopher J. Cramer and Donald G. Truhlar   : smd solvation model
   Lars Goerigk                                  : TD-DFT with DH, B97 family of functionals
   V. Asgeirsson, H. Jonsson                     : NEB implementation
   FAccTs GmbH                                   : IRC, NEB, NEB-TS, Multilevel, MM, QM/MM, CI optimization
   S Lehtola, MJT Oliveira, MAL Marques          : LibXC Library


 Your calculation uses the libint2 library for the computation of 2-el integrals
 For citations please refer to: http://libint.valeyev.net

 Your ORCA version has been built with support for libXC version: 4.2.3
 For citations please refer to: https://tddft.org/programs/libxc/

 This ORCA versions uses:
   CBLAS   interface :  Fast vector & matrix operations
   LAPACKE interface :  Fast linear algebra routines
   SCALAPACK package :  Parallel linear algebra routines


Your calculation utilizes the atom-pairwise dispersion correction
with the Becke-Johnson damping scheme (D3BJ)
Cite in your paper:
S.Grimme, S.Ehrlich, L.Goerigk, J Comput Chem, (2011), 32, 1456–1465 
S.Grimme, J.Antony, S.Ehrlich and H.Krieg, J.Chem.Phys., 132, (2010), 154104 
   

----- Orbital basis set information -----
Your calculation utilizes the basis: aug-cc-pVTZ 
    H, B-Ne : Obtained from the ccRepo (grant-hill.group.shef.ac.uk/ccrepo) Feb. 2017
              R. A. Kendall, T. H. Dunning, Jr., R. J. Harrison, J. Chem. Phys. 96, 6796 (1992)
         He : Obtained from the ccRepo (grant-hill.group.shef.ac.uk/ccrepo) Feb. 2017
              D. E. Woon, T. H. Dunning, Jr., J. Chem. Phys. 100, 2975 (1994)
  Li-Be, Na : Obtained from the ccRepo (grant-hill.group.shef.ac.uk/ccrepo) Feb. 2017
              B. P. Prascher, D. E. Woon, K. A. Peterson, T. H. Dunning, Jr., A. K. Wilson, Theor. Chem. Acc. 128, 69 (2011)
         Mg : Obtained from the Peterson Research Group Website (tyr0.chem.wsu.edu/~kipeters) Feb. 2017
              B. P. Prascher, D. E. Woon, K. A. Peterson, T. H. Dunning, Jr., A. K. Wilson, Theor. Chem. Acc. 128, 69 (2011)
      Al-Ar : Obtained from the ccRepo (grant-hill.group.shef.ac.uk/ccrepo) Feb. 2017
              D. E. Woon, T. H. Dunning, Jr., J. Chem. Phys. 98, 1358 (1993)
      Sc-Zn : Obtained from the ccRepo (grant-hill.group.shef.ac.uk/ccrepo) Feb. 2017
              N. B. Balabanov, K. A. Peterson, J. Chem. Phys. 123, 064107 (2005)
              N. B. Balabanov, K. A. Peterson, J. Chem. Phys. 125, 074110 (2006)
      Ga-Kr : Obtained from the ccRepo (grant-hill.group.shef.ac.uk/ccrepo) Feb. 2017
              A. K. Wilson, D. E. Woon, K. A. Peterson, T. H. Dunning, Jr., J. Chem. Phys. 110, 7667 (1999)
     Ag, Au : Obtained from the Peterson Research Group Website (tyr0.chem.wsu.edu/~kipeters) Feb. 2017
              K. A. Peterson, C. Puzzarini, Theor. Chem. Acc. 114, 283 (2005)

----- AuxJ basis set information -----
Your calculation utilizes the auxiliary basis: def2/J
   F. Weigend, Phys. Chem. Chem. Phys. 8, 1057 (2006).

================================================================================
                                        WARNINGS
                       Please study these warnings very carefully!
================================================================================


WARNING: your system is open-shell and RHF/RKS was chosen
  ===> : WILL SWITCH to UHF/UKS


INFO   : the flag for use of LIBINT has been found!

================================================================================
                                       INPUT FILE
================================================================================
NAME = 21_CrCl.in
|  1> #
|  2> # 21_CrCl tpss/aug-cc-pvtz
|  3> #
|  4> ! tpss d3bj aug-cc-pvtz def2/j grid4 nofinalgrid
|  5> 
|  6> *xyz 0 6
|  7>   Cr  0.00000000000000      0.00000000000000     -0.09885250745251
|  8>   Cl  0.00000000000000      0.00000000000000      2.09885250745250
|  9> *
| 10> 
| 11> %pal
| 12> nprocs 24
| 13> end
| 14> 
| 15> 
| 16>                          ****END OF INPUT****
================================================================================

                       ****************************
                       * Single Point Calculation *
                       ****************************

---------------------------------
CARTESIAN COORDINATES (ANGSTROEM)
---------------------------------
  Cr     0.000000    0.000000   -0.098853
  Cl     0.000000    0.000000    2.098853

----------------------------
CARTESIAN COORDINATES (A.U.)
----------------------------
  NO LB      ZA    FRAG     MASS         X           Y           Z
   0 Cr   24.0000    0    52.000    0.000000    0.000000   -0.186804
   1 Cl   17.0000    0    35.453    0.000000    0.000000    3.966256

--------------------------------
INTERNAL COORDINATES (ANGSTROEM)
--------------------------------
 Cr     0   0   0     0.000000000000     0.00000000     0.00000000
 Cl     1   0   0     2.197705014905     0.00000000     0.00000000

---------------------------
INTERNAL COORDINATES (A.U.)
---------------------------
 Cr     0   0   0     0.000000000000     0.00000000     0.00000000
 Cl     1   0   0     4.153060601316     0.00000000     0.00000000

---------------------
BASIS SET INFORMATION
---------------------
There are 2 groups of distinct atoms

 Group   1 Type Cr  : 116s77p23d3f2g contracted to 8s7p5d3f2g pattern {19191919191911/151515151511/77711/111/11}
 Group   2 Type Cl  : 42s17p3d2f contracted to 6s5p3d2f pattern {131313111/77111/111/11}

Atom   0Cr   basis set group =>   1
Atom   1Cl   basis set group =>   2
---------------------------------
AUXILIARY/J BASIS SET INFORMATION
---------------------------------
There are 2 groups of distinct atoms

 Group   1 Type Cr  : 19s5p5d3f3g contracted to 8s5p5d2f3g pattern {121111111/11111/11111/21/111}
 Group   2 Type Cl  : 14s5p5d2f1g contracted to 8s4p3d1f1g pattern {71111111/2111/311/2/1}

Atom   0Cr   basis set group =>   1
Atom   1Cl   basis set group =>   2


           ************************************************************
           *        Program running with 24 parallel MPI-processes    *
           *              working on a common directory               *
           ************************************************************
------------------------------------------------------------------------------
                           ORCA GTO INTEGRAL CALCULATION
                           -- RI-GTO INTEGRALS CHOSEN --
------------------------------------------------------------------------------

                         BASIS SET STATISTICS AND STARTUP INFO

Gaussian basis set:
 # of primitive gaussian shells          ...  285
 # of primitive gaussian functions       ...  623
 # of contracted shells                  ...   41
 # of contracted basis functions         ...  143
 Highest angular momentum                ...    4
 Maximum contraction depth               ...   19
Auxiliary gaussian basis set:
 # of primitive gaussian shells          ...   62
 # of primitive gaussian functions       ...  184
 # of contracted shells                  ...   40
 # of contracted aux-basis functions     ...  140
 Highest angular momentum                ...    4
 Maximum contraction depth               ...   12
Ratio of auxiliary to basis functions    ...  0.98
Integral package used                  ... LIBINT
 One Electron integrals                  ... done
 Ordering auxiliary basis shells         ... done
 Integral threshhold             Thresh  ...  1.000e-10
 Primitive cut-off               TCut    ...  1.000e-11
 Pre-screening matrix                    ... done
 Shell pair data                         ... 
 Ordering of the shell pairs             ... done (   0.000 sec) 861 of 861 pairs
 Determination of significant pairs      ... done (   0.000 sec)
 Creation of shell pair data             ... done (   0.001 sec)
 Storage of shell pair data              ... done (   0.041 sec)
 Shell pair data done in (   0.042 sec)
 Computing two index integrals           ... done
 Cholesky decomposition of the V-matrix  ... done


Timings:
 Total evaluation time                   ...   3.126 sec (  0.052 min)
 One electron matrix time                ...   0.048 sec (  0.001 min) =  1.5%
 Schwartz matrix evaluation time         ...   3.007 sec (  0.050 min) = 96.2%
 Two index repulsion integral time       ...   0.001 sec (  0.000 min) =  0.0%
 Cholesky decomposition of V             ...   0.001 sec (  0.000 min) =  0.0%
 Three index repulsion integral time     ...   0.000 sec (  0.000 min) =  0.0%



           ************************************************************
           *        Program running with 24 parallel MPI-processes    *
           *              working on a common directory               *
           ************************************************************
-------------------------------------------------------------------------------
                                 ORCA SCF
-------------------------------------------------------------------------------

------------
SCF SETTINGS
------------
Hamiltonian:
 Density Functional     Method          .... DFT(GTOs)
 Exchange Functional    Exchange        .... TPSS
 Correlation Functional Correlation     .... TPSS
 LDA part of GGA corr.  LDAOpt          .... PW91-LDA
 Gradients option       PostSCFGGA      .... off
   Density functional embedding theory  .... OFF
   NL short-range parameter             ....  5.000000
 RI-approximation to the Coulomb term is turned on
   Number of auxiliary basis functions  .... 140


General Settings:
 Integral files         IntName         .... 21_CrCl
 Hartree-Fock type      HFTyp           .... UHF
 Total Charge           Charge          ....    0
 Multiplicity           Mult            ....    6
 Number of Electrons    NEL             ....   41
 Basis Dimension        Dim             ....  143
 Nuclear Repulsion      ENuc            ....     98.2408009820 Eh

Convergence Acceleration:
 DIIS                   CNVDIIS         .... on
   Start iteration      DIISMaxIt       ....    12
   Startup error        DIISStart       ....  0.200000
   # of expansion vecs  DIISMaxEq       ....     5
   Bias factor          DIISBfac        ....   1.050
   Max. coefficient     DIISMaxC        ....  10.000
 Newton-Raphson         CNVNR           .... off
 SOSCF                  CNVSOSCF        .... off
 Level Shifting         CNVShift        .... on
   Level shift para.    LevelShift      ....    0.2500
   Turn off err/grad.   ShiftErr        ....    0.0010
 Zerner damping         CNVZerner       .... off
 Static damping         CNVDamp         .... on
   Fraction old density DampFac         ....    0.7000
   Max. Damping (<1)    DampMax         ....    0.9800
   Min. Damping (>=0)   DampMin         ....    0.0000
   Turn off err/grad.   DampErr         ....    0.1000
 Fernandez-Rico         CNVRico         .... off

SCF Procedure:
 Maximum # iterations   MaxIter         ....   125
 SCF integral mode      SCFMode         .... Direct
   Integral package                     .... LIBINT
 Reset frequency        DirectResetFreq ....    20
 Integral Threshold     Thresh          ....  1.000e-10 Eh
 Primitive CutOff       TCut            ....  1.000e-11 Eh

Convergence Tolerance:
 Convergence Check Mode ConvCheckMode   .... Total+1el-Energy
 Convergence forced     ConvForced      .... 0
 Energy Change          TolE            ....  1.000e-06 Eh
 1-El. energy change                    ....  1.000e-03 Eh
 DIIS Error             TolErr          ....  1.000e-06


Diagonalization of the overlap matrix:
Smallest eigenvalue                        ... 9.755e-05
Time for diagonalization                   ...    0.005 sec
Threshold for overlap eigenvalues          ... 1.000e-08
Number of eigenvalues below threshold      ... 0
Time for construction of square roots      ...    0.003 sec
Total time needed                          ...    0.007 sec

-------------------
DFT GRID GENERATION
-------------------

General Integration Accuracy     IntAcc      ...  4.670
Radial Grid Type                 RadialGrid  ... Gauss-Chebyshev
Angular Grid (max. acc.)         AngularGrid ... Lebedev-302
Angular grid pruning method      GridPruning ... 3 (G Style)
Weight generation scheme         WeightScheme... Becke
Basis function cutoff            BFCut       ...    1.0000e-10
Integration weight cutoff        WCut        ...    1.0000e-14
Grids for H and He will be reduced by one unit

# of grid points (after initial pruning)     ...  16402 (   0.0 sec)
# of grid points (after weights+screening)   ...  16375 (   0.0 sec)
nearest neighbour list constructed           ...    0.0 sec
Grid point re-assignment to atoms done       ...    0.0 sec
Grid point division into batches done        ...    0.1 sec
Reduced shell lists constructed in    0.1 sec

Total number of grid points                  ...    16375
Total number of batches                      ...      257
Average number of points per batch           ...       63
Average number of grid points per atom       ...     8188
Average number of shells per batch           ...    14.08 (34.35%)
Average number of basis functions per batch  ...    35.42 (24.77%)
Average number of large shells per batch     ...     7.25 (51.48%)
Average number of large basis fcns per batch ...    19.58 (55.29%)
Maximum spatial batch extension              ...  24.49, 24.19, 18.13 au
Average spatial batch extension              ...   0.85,  0.83,  0.66 au

Time for grid setup =    0.160 sec

------------------------------
INITIAL GUESS: MODEL POTENTIAL
------------------------------
Loading Hartree-Fock densities                     ... done
Calculating cut-offs                               ... done
Setting up the integral package                    ... done
Initializing the effective Hamiltonian             ... done
Starting the Coulomb interaction                   ... done (   0.0 sec)
Reading the grid                                   ... done
Mapping shells                                     ... done
Starting the XC term evaluation                    ... done (   0.0 sec)
  promolecular density results
     # of electrons  =     41.000003241
     EX              =    -74.581441182
     EC              =     -1.677768002
     EX+EC           =    -76.259209185
Transforming the Hamiltonian                       ... done (   0.0 sec)
Diagonalizing the Hamiltonian                      ... done (   0.0 sec)
Back transforming the eigenvectors                 ... done (   0.0 sec)
Now organizing SCF variables                       ... done
                      ------------------
                      INITIAL GUESS DONE (   0.3 sec)
                      ------------------
--------------
SCF ITERATIONS
--------------
ITER       Energy         Delta-E        Max-DP      RMS-DP      [F,P]     Damp
               ***  Starting incremental Fock matrix formation  ***
  0  -1504.7484802045   0.000000000000 0.08605247  0.00163719  0.1077297 0.7000
  1  -1504.7757171986  -0.027236994045 0.03912744  0.00058190  0.0502116 0.7000
                               ***Turning on DIIS***
  2  -1504.7859719199  -0.010254721299 0.08170591  0.00167954  0.0194242 0.0000
  3  -1504.8037207731  -0.017748853223 0.01268763  0.00033625  0.0360753 0.0000
  4  -1504.8078296002  -0.004108827100 0.03434061  0.00066055  0.0137210 0.0000
  5  -1504.8085962622  -0.000766662014 0.00913528  0.00018680  0.0075416 0.0000
  6  -1504.8088177203  -0.000221458073 0.00373790  0.00006603  0.0018404 0.0000
  7  -1504.8088699949  -0.000052274604 0.01522771  0.00011579  0.0009140 0.0000
  8  -1504.8088980329  -0.000028037992 0.00125203  0.00002126  0.0021022 0.0000
  9  -1504.8089078686  -0.000009835773 0.00206842  0.00001689  0.0006906 0.0000
 10  -1504.8089084257  -0.000000557106 0.00088293  0.00000709  0.0005203 0.0000
 11  -1504.8089095677  -0.000001141970 0.00021649  0.00000228  0.0001034 0.0000
 12  -1504.8089096336  -0.000000065864 0.00006900  0.00000136  0.0000795 0.0000
                 **** Energy Check signals convergence ****

               *****************************************************
               *                     SUCCESS                       *
               *           SCF CONVERGED AFTER  13 CYCLES          *
               *****************************************************


----------------
TOTAL SCF ENERGY
----------------

Total Energy       :        -1504.80890964 Eh          -40947.93218 eV

Components:
Nuclear Repulsion  :           98.24080098 Eh            2673.26810 eV
Electronic Energy  :        -1603.04971062 Eh          -43621.20028 eV
One Electron Energy:        -2270.02977599 Eh          -61770.65056 eV
Two Electron Energy:          666.98006537 Eh           18149.45028 eV

Virial components:
Potential Energy   :        -3006.50879907 Eh          -81811.26363 eV
Kinetic Energy     :         1501.69988943 Eh           40863.33144 eV
Virial Ratio       :            2.00207033


DFT components:
N(Alpha)           :       23.000000617039 electrons
N(Beta)            :       17.999999214009 electrons
N(Total)           :       40.999999831047 electrons
E(X)               :      -75.379773902171 Eh       
E(C)               :       -1.673860214104 Eh       
E(XC)              :      -77.053634116274 Eh       
DFET-embed. en.    :        0.000000000000 Eh       

---------------
SCF CONVERGENCE
---------------

  Last Energy change         ...   -1.7565e-09  Tolerance :   1.0000e-06
  Last MAX-Density change    ...    2.8737e-05  Tolerance :   1.0000e-05
  Last RMS-Density change    ...    3.7382e-07  Tolerance :   1.0000e-06
  Last DIIS Error            ...    1.0324e-05  Tolerance :   1.0000e-06

             **** THE GBW FILE WAS UPDATED (21_CrCl.gbw) ****
             **** DENSITY FILE WAS UPDATED (21_CrCl.scfp) ****
             **** ENERGY FILE WAS UPDATED (21_CrCl.en.tmp) ****
----------------------
UHF SPIN CONTAMINATION
----------------------

Warning: in a DFT calculation there is little theoretical justification to 
         calculate <S**2> as in Hartree-Fock theory. We will do it anyways
         but you should keep in mind that the values have only limited relevance

Expectation value of <S**2>     :     8.768045
Ideal value S*(S+1) for S=2.5   :     8.750000
Deviation                       :     0.018045

             **** THE GBW FILE WAS UPDATED (21_CrCl.gbw) ****
             **** DENSITY FILE WAS UPDATED (21_CrCl.scfp) ****
----------------
ORBITAL ENERGIES
----------------
                 SPIN UP ORBITALS
  NO   OCC          E(Eh)            E(eV) 
   0   1.0000    -214.924974     -5848.4059 
   1   1.0000    -100.972673     -2747.6061 
   2   1.0000     -24.322230      -661.8415 
   3   1.0000     -20.625420      -561.2462 
   4   1.0000     -20.624663      -561.2256 
   5   1.0000     -20.624663      -561.2256 
   6   1.0000      -9.197779      -250.2843 
   7   1.0000      -6.973225      -189.7511 
   8   1.0000      -6.970685      -189.6820 
   9   1.0000      -6.970685      -189.6820 
  10   1.0000      -2.790109       -75.9227 
  11   1.0000      -1.768967       -48.1360 
  12   1.0000      -1.762208       -47.9521 
  13   1.0000      -1.762208       -47.9521 
  14   1.0000      -0.701229       -19.0814 
  15   1.0000      -0.301893        -8.2149 
  16   1.0000      -0.268684        -7.3113 
  17   1.0000      -0.268684        -7.3113 
  18   1.0000      -0.186407        -5.0724 
  19   1.0000      -0.186404        -5.0723 
  20   1.0000      -0.183559        -4.9949 
  21   1.0000      -0.180717        -4.9176 
  22   1.0000      -0.180717        -4.9176 
  23   0.0000      -0.125706        -3.4206 
  24   0.0000      -0.040809        -1.1105 
  25   0.0000      -0.040809        -1.1105 
  26   0.0000      -0.001931        -0.0525 
  27   0.0000       0.002776         0.0756 
  28   0.0000       0.022472         0.6115 
  29   0.0000       0.022472         0.6115 
  30   0.0000       0.039254         1.0682 
  31   0.0000       0.039255         1.0682 
  32   0.0000       0.042763         1.1636 
  33   0.0000       0.044272         1.2047 
  34   0.0000       0.044272         1.2047 
  35   0.0000       0.057451         1.5633 
  36   0.0000       0.099701         2.7130 
  37   0.0000       0.120623         3.2823 
  38   0.0000       0.120623         3.2823 
  39   0.0000       0.123154         3.3512 
  40   0.0000       0.137862         3.7514 
  41   0.0000       0.137863         3.7514 
  42   0.0000       0.166253         4.5240 
  43   0.0000       0.182372         4.9626 
  44   0.0000       0.182374         4.9626 
  45   0.0000       0.194413         5.2903 
  46   0.0000       0.194413         5.2903 
  47   0.0000       0.225977         6.1492 
  48   0.0000       0.258769         7.0415 
  49   0.0000       0.258769         7.0415 
  50   0.0000       0.288837         7.8597 
  51   0.0000       0.337251         9.1771 
  52   0.0000       0.337251         9.1771 
  53   0.0000       0.371345        10.1048 
  54   0.0000       0.493830        13.4378 
  55   0.0000       0.493830        13.4378 
  56   0.0000       0.555078        15.1044 
  57   0.0000       0.555084        15.1046 
  58   0.0000       0.562056        15.2943 
  59   0.0000       0.562056        15.2943 
  60   0.0000       0.573312        15.6006 
  61   0.0000       0.573312        15.6006 
  62   0.0000       0.591966        16.1082 
  63   0.0000       0.628104        17.0916 
  64   0.0000       0.658733        17.9250 
  65   0.0000       0.658733        17.9250 
  66   0.0000       0.728540        19.8246 
  67   0.0000       0.728542        19.8246 
  68   0.0000       0.747655        20.3447 
  69   0.0000       0.747655        20.3447 
  70   0.0000       0.765985        20.8435 
  71   0.0000       0.765989        20.8436 
  72   0.0000       0.767515        20.8851 
  73   0.0000       0.796035        21.6612 
  74   0.0000       0.900118        24.4934 
  75   0.0000       0.900118        24.4934 
  76   0.0000       0.951286        25.8858 
  77   0.0000       1.011969        27.5371 
  78   0.0000       1.011969        27.5371 
  79   0.0000       1.091536        29.7022 
  80   0.0000       1.136961        30.9383 
  81   0.0000       1.136970        30.9385 
  82   0.0000       1.408276        38.3211 
  83   0.0000       1.408276        38.3211 
  84   0.0000       1.588186        43.2167 
  85   0.0000       1.714157        46.6446 
  86   0.0000       1.714157        46.6446 
  87   0.0000       1.721685        46.8494 
  88   0.0000       1.729763        47.0692 
  89   0.0000       1.729768        47.0694 
  90   0.0000       1.816621        49.4328 
  91   0.0000       1.816621        49.4328 
  92   0.0000       1.924325        52.3635 
  93   0.0000       2.109425        57.4004 
  94   0.0000       2.109673        57.4071 
  95   0.0000       2.117388        57.6170 
  96   0.0000       2.117388        57.6171 
  97   0.0000       2.159709        58.7687 
  98   0.0000       2.159866        58.7729 
  99   0.0000       2.204724        59.9936 
 100   0.0000       2.204724        59.9936 
 101   0.0000       2.233359        60.7728 
 102   0.0000       2.233359        60.7728 
 103   0.0000       2.238153        60.9032 
 104   0.0000       2.308760        62.8245 
 105   0.0000       2.308875        62.8277 
 106   0.0000       2.367629        64.4265 
 107   0.0000       2.368368        64.4466 
 108   0.0000       2.368368        64.4466 
 109   0.0000       2.553703        69.4898 
 110   0.0000       2.615028        71.1585 
 111   0.0000       2.615028        71.1585 
 112   0.0000       2.762874        75.1816 
 113   0.0000       2.762874        75.1816 
 114   0.0000       2.827648        76.9442 
 115   0.0000       2.827711        76.9459 
 116   0.0000       2.850678        77.5709 
 117   0.0000       3.003187        81.7209 
 118   0.0000       3.003187        81.7209 
 119   0.0000       3.209309        87.3297 
 120   0.0000       3.209364        87.3312 
 121   0.0000       3.324828        90.4732 
 122   0.0000       3.449226        93.8582 
 123   0.0000       3.449226        93.8582 
 124   0.0000       4.183411       113.8364 
 125   0.0000       5.961220       162.2131 
 126   0.0000       6.035553       164.2357 
 127   0.0000       6.035553       164.2357 
 128   0.0000       6.038174       164.3071 
 129   0.0000       6.038213       164.3081 
 130   0.0000       6.103687       166.0898 
 131   0.0000       6.103687       166.0898 
 132   0.0000       6.336956       172.4373 
 133   0.0000       6.556880       178.4218 
 134   0.0000       6.557372       178.4352 
 135   0.0000       6.557830       178.4476 
 136   0.0000       6.557830       178.4476 
 137   0.0000       6.611255       179.9014 
 138   0.0000       6.611332       179.9035 
 139   0.0000       6.748923       183.6475 
 140   0.0000       6.748923       183.6475 
 141   0.0000       6.886468       187.3903 
 142   0.0000       7.560522       205.7323 

                 SPIN DOWN ORBITALS
  NO   OCC          E(Eh)            E(eV) 
   0   1.0000    -214.924221     -5848.3854 
   1   1.0000    -100.972983     -2747.6146 
   2   1.0000     -24.269022      -660.3937 
   3   1.0000     -20.586203      -560.1791 
   4   1.0000     -20.579859      -560.0064 
   5   1.0000     -20.579859      -560.0064 
   6   1.0000      -9.198023      -250.2909 
   7   1.0000      -6.974657      -189.7901 
   8   1.0000      -6.970532      -189.6778 
   9   1.0000      -6.970532      -189.6778 
  10   1.0000      -2.633008       -71.6478 
  11   1.0000      -1.617328       -44.0097 
  12   1.0000      -1.599748       -43.5314 
  13   1.0000      -1.599748       -43.5314 
  14   1.0000      -0.701869       -19.0988 
  15   1.0000      -0.293366        -7.9829 
  16   1.0000      -0.257949        -7.0191 
  17   1.0000      -0.257949        -7.0191 
  18   0.0000      -0.097035        -2.6404 
  19   0.0000      -0.050781        -1.3818 
  20   0.0000      -0.045207        -1.2301 
  21   0.0000      -0.045207        -1.2301 
  22   0.0000      -0.041683        -1.1343 
  23   0.0000      -0.041679        -1.1342 
  24   0.0000       0.000891         0.0242 
  25   0.0000       0.000891         0.0242 
  26   0.0000       0.013027         0.3545 
  27   0.0000       0.016608         0.4519 
  28   0.0000       0.038608         1.0506 
  29   0.0000       0.038608         1.0506 
  30   0.0000       0.059925         1.6307 
  31   0.0000       0.059926         1.6307 
  32   0.0000       0.059972         1.6319 
  33   0.0000       0.061190         1.6651 
  34   0.0000       0.061194         1.6652 
  35   0.0000       0.069550         1.8926 
  36   0.0000       0.125606         3.4179 
  37   0.0000       0.130159         3.5418 
  38   0.0000       0.130159         3.5418 
  39   0.0000       0.138501         3.7688 
  40   0.0000       0.170738         4.6460 
  41   0.0000       0.170739         4.6460 
  42   0.0000       0.199833         5.4377 
  43   0.0000       0.214607         5.8397 
  44   0.0000       0.214610         5.8398 
  45   0.0000       0.227664         6.1951 
  46   0.0000       0.227664         6.1951 
  47   0.0000       0.234216         6.3733 
  48   0.0000       0.271667         7.3924 
  49   0.0000       0.271671         7.3925 
  50   0.0000       0.317962         8.6522 
  51   0.0000       0.347607         9.4589 
  52   0.0000       0.347607         9.4589 
  53   0.0000       0.383818        10.4442 
  54   0.0000       0.538985        14.6665 
  55   0.0000       0.538985        14.6665 
  56   0.0000       0.577712        15.7203 
  57   0.0000       0.577712        15.7203 
  58   0.0000       0.591774        16.1030 
  59   0.0000       0.591779        16.1031 
  60   0.0000       0.626944        17.0600 
  61   0.0000       0.626944        17.0600 
  62   0.0000       0.635165        17.2837 
  63   0.0000       0.659113        17.9354 
  64   0.0000       0.701944        19.1009 
  65   0.0000       0.701944        19.1009 
  66   0.0000       0.735249        20.0071 
  67   0.0000       0.735252        20.0072 
  68   0.0000       0.763325        20.7711 
  69   0.0000       0.763325        20.7711 
  70   0.0000       0.791357        21.5339 
  71   0.0000       0.803262        21.8579 
  72   0.0000       0.843139        22.9430 
  73   0.0000       0.843148        22.9432 
  74   0.0000       0.941888        25.6301 
  75   0.0000       0.941888        25.6301 
  76   0.0000       0.966018        26.2867 
  77   0.0000       1.014684        27.6110 
  78   0.0000       1.014684        27.6110 
  79   0.0000       1.141929        31.0735 
  80   0.0000       1.148326        31.2475 
  81   0.0000       1.148347        31.2481 
  82   0.0000       1.440887        39.2085 
  83   0.0000       1.440887        39.2085 
  84   0.0000       1.656068        45.0639 
  85   0.0000       1.786249        48.6063 
  86   0.0000       1.821709        49.5712 
  87   0.0000       1.821709        49.5712 
  88   0.0000       1.835558        49.9481 
  89   0.0000       1.835561        49.9482 
  90   0.0000       1.889481        51.4154 
  91   0.0000       1.889481        51.4154 
  92   0.0000       1.965916        53.4953 
  93   0.0000       2.179736        59.3136 
  94   0.0000       2.179950        59.3195 
  95   0.0000       2.187925        59.5365 
  96   0.0000       2.188128        59.5420 
  97   0.0000       2.200374        59.8752 
  98   0.0000       2.200374        59.8752 
  99   0.0000       2.250439        61.2376 
 100   0.0000       2.250439        61.2376 
 101   0.0000       2.275841        61.9288 
 102   0.0000       2.331157        63.4340 
 103   0.0000       2.331157        63.4340 
 104   0.0000       2.357102        64.1400 
 105   0.0000       2.357173        64.1419 
 106   0.0000       2.373093        64.5751 
 107   0.0000       2.373093        64.5751 
 108   0.0000       2.419213        65.8301 
 109   0.0000       2.607367        70.9501 
 110   0.0000       2.647874        72.0523 
 111   0.0000       2.647874        72.0523 
 112   0.0000       2.764992        75.2393 
 113   0.0000       2.764992        75.2393 
 114   0.0000       2.829032        76.9819 
 115   0.0000       2.829101        76.9838 
 116   0.0000       2.858109        77.7731 
 117   0.0000       3.020496        82.1919 
 118   0.0000       3.020496        82.1919 
 119   0.0000       3.341639        90.9306 
 120   0.0000       3.341676        90.9316 
 121   0.0000       3.382749        92.0493 
 122   0.0000       3.570709        97.1639 
 123   0.0000       3.570709        97.1639 
 124   0.0000       4.269859       116.1888 
 125   0.0000       5.982683       162.7971 
 126   0.0000       6.216202       169.1514 
 127   0.0000       6.216202       169.1514 
 128   0.0000       6.230294       169.5349 
 129   0.0000       6.230300       169.5351 
 130   0.0000       6.279620       170.8771 
 131   0.0000       6.279620       170.8771 
 132   0.0000       6.482309       176.3926 
 133   0.0000       6.681457       181.8117 
 134   0.0000       6.681809       181.8213 
 135   0.0000       6.686749       181.9557 
 136   0.0000       6.686749       181.9557 
 137   0.0000       6.732661       183.2050 
 138   0.0000       6.732736       183.2071 
 139   0.0000       6.862136       186.7282 
 140   0.0000       6.862136       186.7282 
 141   0.0000       6.996816       190.3930 
 142   0.0000       7.712571       209.8697 

                    ********************************
                    * MULLIKEN POPULATION ANALYSIS *
                    ********************************

--------------------------------------------
MULLIKEN ATOMIC CHARGES AND SPIN POPULATIONS
--------------------------------------------
   0 Cr:    0.351020    5.062815
   1 Cl:   -0.351020   -0.062815
Sum of atomic charges         :   -0.0000000
Sum of atomic spin populations:    5.0000000

-----------------------------------------------------
MULLIKEN REDUCED ORBITAL CHARGES AND SPIN POPULATIONS
-----------------------------------------------------
CHARGE
  0 Crs       :     6.644245  s :     6.644245
      pz      :     4.083608  p :    12.186044
      px      :     4.051218
      py      :     4.051218
      dz2     :     0.749159  d :     4.795231
      dxz     :     1.024340
      dyz     :     1.024340
      dx2y2   :     0.998696
      dxy     :     0.998696
      f0      :     0.007407  f :     0.021419
      f+1     :     0.006888
      f-1     :     0.006888
      f+2     :     0.000118
      f-2     :     0.000118
      f+3     :     0.000000
      f-3     :     0.000000
      g0      :     0.000649  g :     0.002041
      g+1     :     0.000693
      g-1     :     0.000693
      g+2     :     0.000003
      g-2     :     0.000003
      g+3     :     0.000000
      g-3     :     0.000000
      g+4     :     0.000000
      g-4     :     0.000000
  1 Cls       :     5.936441  s :     5.936441
      pz      :     3.574026  p :    11.390154
      px      :     3.908064
      py      :     3.908064
      dz2     :     0.004707  d :     0.022919
      dxz     :     0.008250
      dyz     :     0.008250
      dx2y2   :     0.000856
      dxy     :     0.000856
      f0      :    -0.000242  f :     0.001506
      f+1     :     0.000547
      f-1     :     0.000547
      f+2     :     0.000328
      f-2     :     0.000328
      f+3     :     0.000000
      f-3     :     0.000000

SPIN
  0 Crs       :     0.497327  s :     0.497327
      pz      :     0.011602  p :     0.066075
      px      :     0.027237
      py      :     0.027237
      dz2     :     0.600825  d :     4.498880
      dxz     :     0.950332
      dyz     :     0.950332
      dx2y2   :     0.998696
      dxy     :     0.998696
      f0      :    -0.000594  f :     0.000990
      f+1     :     0.000674
      f-1     :     0.000674
      f+2     :     0.000118
      f-2     :     0.000118
      f+3     :     0.000000
      f-3     :     0.000000
      g0      :    -0.000283  g :    -0.000457
      g+1     :    -0.000090
      g-1     :    -0.000090
      g+2     :     0.000003
      g-2     :     0.000003
      g+3     :     0.000000
      g-3     :     0.000000
      g+4     :     0.000000
      g-4     :     0.000000
  1 Cls       :    -0.005724  s :    -0.005724
      pz      :    -0.104989  p :    -0.067539
      px      :     0.018725
      py      :     0.018725
      dz2     :     0.002203  d :     0.010309
      dxz     :     0.003197
      dyz     :     0.003197
      dx2y2   :     0.000856
      dxy     :     0.000856
      f0      :    -0.000368  f :     0.000139
      f+1     :    -0.000074
      f-1     :    -0.000074
      f+2     :     0.000328
      f-2     :     0.000328
      f+3     :    -0.000000
      f-3     :    -0.000000


                     *******************************
                     * LOEWDIN POPULATION ANALYSIS *
                     *******************************

-------------------------------------------
LOEWDIN ATOMIC CHARGES AND SPIN POPULATIONS
-------------------------------------------
   0 Cr:    0.004321    4.880488
   1 Cl:   -0.004321    0.119512

----------------------------------------------------
LOEWDIN REDUCED ORBITAL CHARGES AND SPIN POPULATIONS
----------------------------------------------------
CHARGE
  0 Crs       :     6.463950  s :     6.463950
      pz      :     4.161836  p :    12.316608
      px      :     4.077386
      py      :     4.077386
      dz2     :     0.873737  d :     4.969760
      dxz     :     1.054686
      dyz     :     1.054686
      dx2y2   :     0.993325
      dxy     :     0.993325
      f0      :     0.082049  f :     0.226884
      f+1     :     0.072027
      f-1     :     0.072027
      f+2     :     0.000391
      f-2     :     0.000391
      f+3     :     0.000000
      f-3     :     0.000000
      g0      :     0.007799  g :     0.018477
      g+1     :     0.005331
      g-1     :     0.005331
      g+2     :     0.000008
      g-2     :     0.000008
      g+3     :     0.000000
      g-3     :     0.000000
      g+4     :     0.000000
      g-4     :     0.000000
  1 Cls       :     5.588549  s :     5.588549
      pz      :     3.674772  p :    11.133305
      px      :     3.729266
      py      :     3.729266
      dz2     :     0.104712  d :     0.191638
      dxz     :     0.040035
      dyz     :     0.040035
      dx2y2   :     0.003428
      dxy     :     0.003428
      f0      :     0.042595  f :     0.090829
      f+1     :     0.021269
      f-1     :     0.021269
      f+2     :     0.002848
      f-2     :     0.002848
      f+3     :     0.000000
      f-3     :     0.000000

SPIN
  0 Crs       :     0.427436  s :     0.427436
      pz      :    -0.001158  p :     0.081102
      px      :     0.041130
      py      :     0.041130
      dz2     :     0.578583  d :     4.364446
      dxz     :     0.899606
      dyz     :     0.899606
      dx2y2   :     0.993325
      dxy     :     0.993325
      f0      :    -0.001527  f :     0.007728
      f+1     :     0.004237
      f-1     :     0.004237
      f+2     :     0.000391
      f-2     :     0.000391
      f+3     :     0.000000
      f-3     :     0.000000
      g0      :    -0.000678  g :    -0.000224
      g+1     :     0.000219
      g-1     :     0.000219
      g+2     :     0.000008
      g-2     :     0.000008
      g+3     :     0.000000
      g-3     :     0.000000
      g+4     :     0.000000
      g-4     :     0.000000
  1 Cls       :     0.013193  s :     0.013193
      pz      :    -0.025707  p :     0.006924
      px      :     0.016316
      py      :     0.016316
      dz2     :     0.007950  d :     0.064243
      dxz     :     0.024719
      dyz     :     0.024719
      dx2y2   :     0.003428
      dxy     :     0.003428
      f0      :     0.001908  f :     0.035152
      f+1     :     0.013774
      f-1     :     0.013774
      f+2     :     0.002848
      f-2     :     0.002848
      f+3     :    -0.000000
      f-3     :    -0.000000


                      *****************************
                      * MAYER POPULATION ANALYSIS *
                      *****************************

  NA   - Mulliken gross atomic population
  ZA   - Total nuclear charge
  QA   - Mulliken gross atomic charge
  VA   - Mayer's total valence
  BVA  - Mayer's bonded valence
  FA   - Mayer's free valence

  ATOM       NA         ZA         QA         VA         BVA        FA
  0 Cr    23.6490    24.0000     0.3510     5.9451     1.0971     4.8480
  1 Cl    17.3510    17.0000    -0.3510     1.1086     1.0971     0.0115

  Mayer bond orders larger than 0.100000
B(  0-Cr,  1-Cl) :   1.0971 

-------
TIMINGS
-------

Total SCF time: 0 days 0 hours 0 min 3 sec 

Total time                  ....       3.211 sec
Sum of individual times     ....       2.953 sec  ( 92.0%)

Fock matrix formation       ....       2.556 sec  ( 79.6%)
  Split-RI-J                ....       1.907 sec  ( 74.6% of F)
  XC integration            ....       0.534 sec  ( 20.9% of F)
    Basis function eval.    ....       0.069 sec  ( 12.9% of XC)
    Density eval.           ....       0.074 sec  ( 13.9% of XC)
    XC-Functional eval.     ....       0.019 sec  (  3.5% of XC)
    XC-Potential eval.      ....       0.203 sec  ( 38.0% of XC)
Diagonalization             ....       0.077 sec  (  2.4%)
Density matrix formation    ....       0.011 sec  (  0.3%)
Population analysis         ....       0.007 sec  (  0.2%)
Initial guess               ....       0.116 sec  (  3.6%)
Orbital Transformation      ....       0.000 sec  (  0.0%)
Orbital Orthonormalization  ....       0.000 sec  (  0.0%)
DIIS solution               ....       0.027 sec  (  0.8%)
Grid generation             ....       0.160 sec  (  5.0%)


-------------------------------------------------------------------------------
                          DFT DISPERSION CORRECTION                            
                                                                               
                              DFTD3 V3.1  Rev 1                                
                          USING Becke-Johnson damping                          
-------------------------------------------------------------------------------
The TPSS functional is recognized
Active option DFTDOPT                   ...         4   

molecular C6(AA) [au] = 792.508897 


            DFT-D V3
 parameters
 s6 scaling factor         :     1.0000 
 a1 scaling factor         :     0.4535 
 s8 scaling factor         :     1.9435 
 a2 scaling factor         :     4.4752 
 ad hoc parameters k1-k3   :    16.0000     1.3333    -4.0000 

 Edisp/kcal,au: -1.095965403423  -0.001746531856 
 E6   /kcal   :  -0.379510729 
 E8   /kcal   :  -0.716454675 
 % E8         :  65.372015620 

-------------------------   ----------------
Dispersion correction           -0.001746532
-------------------------   ----------------


-------------------------   --------------------
FINAL SINGLE POINT ENERGY     -1504.810656167188
-------------------------   --------------------


                            ***************************************
                            *     ORCA property calculations      *
                            ***************************************

                                    ---------------------
                                    Active property flags
                                    ---------------------
   (+) Dipole Moment


------------------------------------------------------------------------------
                       ORCA ELECTRIC PROPERTIES CALCULATION
------------------------------------------------------------------------------

Dipole Moment Calculation                       ... on
Quadrupole Moment Calculation                   ... off
Polarizability Calculation                      ... off
GBWName                                         ... 21_CrCl.gbw
Electron density file                           ... 21_CrCl.scfp
The origin for moment calculation is the CENTER OF MASS  = ( 0.000000,  0.000000  1.496825)

-------------
DIPOLE MOMENT
-------------
                                X             Y             Z
Electronic contribution:     -0.00000      -0.00000      -3.44352
Nuclear contribution   :      0.00000       0.00000       1.57322
                        -----------------------------------------
Total Dipole Moment    :     -0.00000      -0.00000      -1.87031
                        -----------------------------------------
Magnitude (a.u.)       :      1.87031
Magnitude (Debye)      :      4.75394



--------------------
Rotational spectrum 
--------------------
 
Rotational constants in cm-1:     0.000000     0.165568     0.165568 
Rotational constants in MHz :     0.000000  4963.604658  4963.604658 

 Dipole components along the rotational axes: 
x,y,z [a.u.] :    -1.870307    -0.000000    -0.000000 
x,y,z [Debye]:    -4.753942    -0.000000    -0.000000 

 

Timings for individual modules:

Sum of individual times         ...        7.148 sec (=   0.119 min)
GTO integral calculation        ...        3.600 sec (=   0.060 min)  50.4 %
SCF iterations                  ...        3.549 sec (=   0.059 min)  49.6 %
                             ****ORCA TERMINATED NORMALLY****
TOTAL RUN TIME: 0 days 0 hours 0 minutes 7 seconds 753 msec
