
                                 *****************
                                 * O   R   C   A *
                                 *****************

           --- An Ab Initio, DFT and Semiempirical electronic structure package ---

                  #######################################################
                  #                        -***-                        #
                  #          Department of theory and spectroscopy      #
                  #               Directorship: Frank Neese             #
                  #        Max Planck Institute fuer Kohlenforschung    #
                  #                Kaiser Wilhelm Platz 1               #
                  #                 D-45470 Muelheim/Ruhr               #
                  #                      Germany                        #
                  #                                                     #
                  #                  All rights reserved                #
                  #                        -***-                        #
                  #######################################################


                         Program Version 4.2.0 -  RELEASE  -


 With contributions from (in alphabetic order):
   Daniel Aravena         : Magnetic Suceptibility
   Michael Atanasov       : Ab Initio Ligand Field Theory (pilot matlab implementation)
   Alexander A. Auer      : GIAO ZORA, VPT2
   Ute Becker             : Parallelization
   Giovanni Bistoni       : ED, misc. LED, open-shell LED, HFLED
   Martin Brehm           : Molecular dynamics
   Dmytro Bykov           : SCF Hessian
   Vijay G. Chilkuri      : MRCI spin determinant printing, contributions to CSF-ICE
   Dipayan Datta          : RHF DLPNO-CCSD density
   Achintya Kumar Dutta   : EOM-CC, STEOM-CC
   Dmitry Ganyushin       : Spin-Orbit,Spin-Spin,Magnetic field MRCI
   Miquel Garcia          : C-PCM Hessian, Gaussian charge scheme
   Yang Guo               : DLPNO-NEVPT2, CIM, IAO-localization
   Andreas Hansen         : Spin unrestricted coupled pair/coupled cluster methods
   Benjamin Helmich-Paris : CASSCF linear response (MC-RPA)
   Lee Huntington         : MR-EOM, pCC
   Robert Izsak           : Overlap fitted RIJCOSX, COSX-SCS-MP3, EOM
   Christian Kollmar      : KDIIS, OOCD, Brueckner-CCSD(T), CCSD density
   Simone Kossmann        : Meta GGA functionals, TD-DFT gradient, OOMP2, MP2 Hessian
   Martin Krupicka        : AUTO-CI
   Lucas Lang             : DCDCAS
   Dagmar Lenk            : GEPOL surface, SMD
   Dimitrios Liakos       : Extrapolation schemes; Compound Job, initial MDCI parallelization
   Dimitrios Manganas     : Further ROCIS development; embedding schemes
   Dimitrios Pantazis     : SARC Basis sets
   Taras Petrenko         : DFT Hessian,TD-DFT gradient, ASA, ECA, R-Raman, ABS, FL, XAS/XES, NRVS
   Peter Pinski           : DLPNO-MP2, DLPNO-MP2 Gradient
   Christoph Reimann      : Effective Core Potentials
   Marius Retegan         : Local ZFS, SOC
   Christoph Riplinger    : Optimizer, TS searches, QM/MM, DLPNO-CCSD(T), (RO)-DLPNO pert. Triples
   Tobias Risthaus        : Range-separated hybrids, TD-DFT gradient, RPA, STAB
   Michael Roemelt        : Original ROCIS implementation
   Masaaki Saitow         : Open-shell DLPNO-CCSD energy and density
   Barbara Sandhoefer     : DKH picture change effects
   Avijit Sen             : IP-ROCIS
   Kantharuban Sivalingam : CASSCF convergence, NEVPT2, FIC-MRCI
   Bernardo de Souza      : ESD, SOC TD-DFT
   Georgi Stoychev        : AutoAux, RI-MP2 NMR
   Willem Van den Heuvel  : Paramagnetic NMR
   Boris Wezisla          : Elementary symmetry handling
   Frank Wennmohs         : Technical directorship


 We gratefully acknowledge several colleagues who have allowed us to
 interface, adapt or use parts of their codes:
   Stefan Grimme, W. Hujo, H. Kruse,             : VdW corrections, initial TS optimization,
                  C. Bannwarth                     DFT functionals, gCP, sTDA/sTD-DF
   Ed Valeev, F. Pavosevic, A. Kumar             : LibInt (2-el integral package), F12 methods
   Garnet Chan, S. Sharma, J. Yang, R. Olivares  : DMRG
   Ulf Ekstrom                                   : XCFun DFT Library
   Mihaly Kallay                                 : mrcc  (arbitrary order and MRCC methods)
   Andreas Klamt, Michael Diedenhofen            : otool_cosmo (COSMO solvation model)
   Jiri Pittner, Ondrej Demel                    : Mk-CCSD
   Frank Weinhold                                : gennbo (NPA and NBO analysis)
   Christopher J. Cramer and Donald G. Truhlar   : smd solvation model
   Lars Goerigk                                  : TD-DFT with DH, B97 family of functionals
   V. Asgeirsson, H. Jonsson                     : NEB implementation
   FAccTs GmbH                                   : IRC, NEB, NEB-TS, Multilevel, MM, QM/MM, CI optimization
   S Lehtola, MJT Oliveira, MAL Marques          : LibXC Library


 Your calculation uses the libint2 library for the computation of 2-el integrals
 For citations please refer to: http://libint.valeyev.net

 Your ORCA version has been built with support for libXC version: 4.2.3
 For citations please refer to: https://tddft.org/programs/libxc/

 This ORCA versions uses:
   CBLAS   interface :  Fast vector & matrix operations
   LAPACKE interface :  Fast linear algebra routines
   SCALAPACK package :  Parallel linear algebra routines


Your calculation utilizes the atom-pairwise dispersion correction
with the Becke-Johnson damping scheme (D3BJ)
Cite in your paper:
S.Grimme, S.Ehrlich, L.Goerigk, J Comput Chem, (2011), 32, 1456–1465 
S.Grimme, J.Antony, S.Ehrlich and H.Krieg, J.Chem.Phys., 132, (2010), 154104 
   

----- Orbital basis set information -----
Your calculation utilizes the basis: aug-cc-pVTZ 
    H, B-Ne : Obtained from the ccRepo (grant-hill.group.shef.ac.uk/ccrepo) Feb. 2017
              R. A. Kendall, T. H. Dunning, Jr., R. J. Harrison, J. Chem. Phys. 96, 6796 (1992)
         He : Obtained from the ccRepo (grant-hill.group.shef.ac.uk/ccrepo) Feb. 2017
              D. E. Woon, T. H. Dunning, Jr., J. Chem. Phys. 100, 2975 (1994)
  Li-Be, Na : Obtained from the ccRepo (grant-hill.group.shef.ac.uk/ccrepo) Feb. 2017
              B. P. Prascher, D. E. Woon, K. A. Peterson, T. H. Dunning, Jr., A. K. Wilson, Theor. Chem. Acc. 128, 69 (2011)
         Mg : Obtained from the Peterson Research Group Website (tyr0.chem.wsu.edu/~kipeters) Feb. 2017
              B. P. Prascher, D. E. Woon, K. A. Peterson, T. H. Dunning, Jr., A. K. Wilson, Theor. Chem. Acc. 128, 69 (2011)
      Al-Ar : Obtained from the ccRepo (grant-hill.group.shef.ac.uk/ccrepo) Feb. 2017
              D. E. Woon, T. H. Dunning, Jr., J. Chem. Phys. 98, 1358 (1993)
      Sc-Zn : Obtained from the ccRepo (grant-hill.group.shef.ac.uk/ccrepo) Feb. 2017
              N. B. Balabanov, K. A. Peterson, J. Chem. Phys. 123, 064107 (2005)
              N. B. Balabanov, K. A. Peterson, J. Chem. Phys. 125, 074110 (2006)
      Ga-Kr : Obtained from the ccRepo (grant-hill.group.shef.ac.uk/ccrepo) Feb. 2017
              A. K. Wilson, D. E. Woon, K. A. Peterson, T. H. Dunning, Jr., J. Chem. Phys. 110, 7667 (1999)
     Ag, Au : Obtained from the Peterson Research Group Website (tyr0.chem.wsu.edu/~kipeters) Feb. 2017
              K. A. Peterson, C. Puzzarini, Theor. Chem. Acc. 114, 283 (2005)

----- AuxJ basis set information -----
Your calculation utilizes the auxiliary basis: def2/J
   F. Weigend, Phys. Chem. Chem. Phys. 8, 1057 (2006).

================================================================================
                                        WARNINGS
                       Please study these warnings very carefully!
================================================================================


WARNING: your system is open-shell and RHF/RKS was chosen
  ===> : WILL SWITCH to UHF/UKS


INFO   : the flag for use of LIBINT has been found!

================================================================================
                                       INPUT FILE
================================================================================
NAME = 22_CrBr.in
|  1> #
|  2> # 22_CrBr tpss/aug-cc-pvtz
|  3> #
|  4> ! tpss d3bj aug-cc-pvtz def2/j grid4 nofinalgrid
|  5> 
|  6> *xyz 0 6
|  7>   Cr  0.00000000000000      0.00000000000000     -0.17198862284832
|  8>   Br  0.00000000000000      0.00000000000000      2.17198862284831
|  9> *
| 10> 
| 11> %pal
| 12> nprocs 24
| 13> end
| 14> 
| 15> 
| 16>                          ****END OF INPUT****
================================================================================

                       ****************************
                       * Single Point Calculation *
                       ****************************

---------------------------------
CARTESIAN COORDINATES (ANGSTROEM)
---------------------------------
  Cr     0.000000    0.000000   -0.171989
  Br     0.000000    0.000000    2.171989

----------------------------
CARTESIAN COORDINATES (A.U.)
----------------------------
  NO LB      ZA    FRAG     MASS         X           Y           Z
   0 Cr   24.0000    0    52.000    0.000000    0.000000   -0.325011
   1 Br   35.0000    0    79.900    0.000000    0.000000    4.104464

--------------------------------
INTERNAL COORDINATES (ANGSTROEM)
--------------------------------
 Cr     0   0   0     0.000000000000     0.00000000     0.00000000
 Br     1   0   0     2.343977245697     0.00000000     0.00000000

---------------------------
INTERNAL COORDINATES (A.U.)
---------------------------
 Cr     0   0   0     0.000000000000     0.00000000     0.00000000
 Br     1   0   0     4.429475058510     0.00000000     0.00000000

---------------------
BASIS SET INFORMATION
---------------------
There are 2 groups of distinct atoms

 Group   1 Type Cr  : 116s77p23d3f2g contracted to 8s7p5d3f2g pattern {19191919191911/151515151511/77711/111/11}
 Group   2 Type Br  : 75s36p10d2f contracted to 7s6p4d2f pattern {18181818111/111111111/7111/11}

Atom   0Cr   basis set group =>   1
Atom   1Br   basis set group =>   2
---------------------------------
AUXILIARY/J BASIS SET INFORMATION
---------------------------------
There are 2 groups of distinct atoms

 Group   1 Type Cr  : 19s5p5d3f3g contracted to 8s5p5d2f3g pattern {121111111/11111/11111/21/111}
 Group   2 Type Br  : 19s5p5d3f1g contracted to 8s4p3d2f1g pattern {121111111/2111/311/21/1}

Atom   0Cr   basis set group =>   1
Atom   1Br   basis set group =>   2


           ************************************************************
           *        Program running with 24 parallel MPI-processes    *
           *              working on a common directory               *
           ************************************************************
------------------------------------------------------------------------------
                           ORCA GTO INTEGRAL CALCULATION
                           -- RI-GTO INTEGRALS CHOSEN --
------------------------------------------------------------------------------

                         BASIS SET STATISTICS AND STARTUP INFO

Gaussian basis set:
 # of primitive gaussian shells          ...  344
 # of primitive gaussian functions       ...  748
 # of contracted shells                  ...   44
 # of contracted basis functions         ...  152
 Highest angular momentum                ...    4
 Maximum contraction depth               ...   19
Auxiliary gaussian basis set:
 # of primitive gaussian shells          ...   68
 # of primitive gaussian functions       ...  196
 # of contracted shells                  ...   41
 # of contracted aux-basis functions     ...  147
 Highest angular momentum                ...    4
 Maximum contraction depth               ...   12
Ratio of auxiliary to basis functions    ...  0.97
Integral package used                  ... LIBINT
 One Electron integrals                  ... done
 Ordering auxiliary basis shells         ... done
 Integral threshhold             Thresh  ...  1.000e-10
 Primitive cut-off               TCut    ...  1.000e-11
 Pre-screening matrix                    ... done
 Shell pair data                         ... 
 Ordering of the shell pairs             ... done (   0.000 sec) 990 of 990 pairs
 Determination of significant pairs      ... done (   0.000 sec)
 Creation of shell pair data             ... done (   0.002 sec)
 Storage of shell pair data              ... done (   0.248 sec)
 Shell pair data done in (   0.250 sec)
 Computing two index integrals           ... done
 Cholesky decomposition of the V-matrix  ... done


Timings:
 Total evaluation time                   ...   4.570 sec (  0.076 min)
 One electron matrix time                ...   0.058 sec (  0.001 min) =  1.3%
 Schwartz matrix evaluation time         ...   4.232 sec (  0.071 min) = 92.6%
 Two index repulsion integral time       ...   0.001 sec (  0.000 min) =  0.0%
 Cholesky decomposition of V             ...   0.001 sec (  0.000 min) =  0.0%
 Three index repulsion integral time     ...   0.000 sec (  0.000 min) =  0.0%



           ************************************************************
           *        Program running with 24 parallel MPI-processes    *
           *              working on a common directory               *
           ************************************************************
-------------------------------------------------------------------------------
                                 ORCA SCF
-------------------------------------------------------------------------------

------------
SCF SETTINGS
------------
Hamiltonian:
 Density Functional     Method          .... DFT(GTOs)
 Exchange Functional    Exchange        .... TPSS
 Correlation Functional Correlation     .... TPSS
 LDA part of GGA corr.  LDAOpt          .... PW91-LDA
 Gradients option       PostSCFGGA      .... off
   Density functional embedding theory  .... OFF
   NL short-range parameter             ....  5.000000
 RI-approximation to the Coulomb term is turned on
   Number of auxiliary basis functions  .... 147


General Settings:
 Integral files         IntName         .... 22_CrBr
 Hartree-Fock type      HFTyp           .... UHF
 Total Charge           Charge          ....    0
 Multiplicity           Mult            ....    6
 Number of Electrons    NEL             ....   59
 Basis Dimension        Dim             ....  152
 Nuclear Repulsion      ENuc            ....    189.6387244322 Eh

Convergence Acceleration:
 DIIS                   CNVDIIS         .... on
   Start iteration      DIISMaxIt       ....    12
   Startup error        DIISStart       ....  0.200000
   # of expansion vecs  DIISMaxEq       ....     5
   Bias factor          DIISBfac        ....   1.050
   Max. coefficient     DIISMaxC        ....  10.000
 Newton-Raphson         CNVNR           .... off
 SOSCF                  CNVSOSCF        .... off
 Level Shifting         CNVShift        .... on
   Level shift para.    LevelShift      ....    0.2500
   Turn off err/grad.   ShiftErr        ....    0.0010
 Zerner damping         CNVZerner       .... off
 Static damping         CNVDamp         .... on
   Fraction old density DampFac         ....    0.7000
   Max. Damping (<1)    DampMax         ....    0.9800
   Min. Damping (>=0)   DampMin         ....    0.0000
   Turn off err/grad.   DampErr         ....    0.1000
 Fernandez-Rico         CNVRico         .... off

SCF Procedure:
 Maximum # iterations   MaxIter         ....   125
 SCF integral mode      SCFMode         .... Direct
   Integral package                     .... LIBINT
 Reset frequency        DirectResetFreq ....    20
 Integral Threshold     Thresh          ....  1.000e-10 Eh
 Primitive CutOff       TCut            ....  1.000e-11 Eh

Convergence Tolerance:
 Convergence Check Mode ConvCheckMode   .... Total+1el-Energy
 Convergence forced     ConvForced      .... 0
 Energy Change          TolE            ....  1.000e-06 Eh
 1-El. energy change                    ....  1.000e-03 Eh
 DIIS Error             TolErr          ....  1.000e-06


Diagonalization of the overlap matrix:
Smallest eigenvalue                        ... 9.409e-05
Time for diagonalization                   ...    0.004 sec
Threshold for overlap eigenvalues          ... 1.000e-08
Number of eigenvalues below threshold      ... 0
Time for construction of square roots      ...    0.003 sec
Total time needed                          ...    0.007 sec

-------------------
DFT GRID GENERATION
-------------------

General Integration Accuracy     IntAcc      ...  4.670
Radial Grid Type                 RadialGrid  ... Gauss-Chebyshev
Angular Grid (max. acc.)         AngularGrid ... Lebedev-302
Angular grid pruning method      GridPruning ... 3 (G Style)
Weight generation scheme         WeightScheme... Becke
Basis function cutoff            BFCut       ...    1.0000e-10
Integration weight cutoff        WCut        ...    1.0000e-14
Grids for H and He will be reduced by one unit

# of grid points (after initial pruning)     ...  19280 (   0.0 sec)
# of grid points (after weights+screening)   ...  19253 (   0.0 sec)
nearest neighbour list constructed           ...    0.0 sec
Grid point re-assignment to atoms done       ...    0.0 sec
Grid point division into batches done        ...    0.2 sec
Reduced shell lists constructed in    0.2 sec

Total number of grid points                  ...    19253
Total number of batches                      ...      302
Average number of points per batch           ...       63
Average number of grid points per atom       ...     9626
Average number of shells per batch           ...    16.43 (37.34%)
Average number of basis functions per batch  ...    43.57 (28.67%)
Average number of large shells per batch     ...     9.36 (56.96%)
Average number of large basis fcns per batch ...    25.64 (58.85%)
Maximum spatial batch extension              ...  24.49, 24.19, 17.83 au
Average spatial batch extension              ...   0.84,  0.83,  0.67 au

Time for grid setup =    0.231 sec

------------------------------
INITIAL GUESS: MODEL POTENTIAL
------------------------------
Loading Hartree-Fock densities                     ... done
Calculating cut-offs                               ... done
Setting up the integral package                    ... done
Initializing the effective Hamiltonian             ... done
Starting the Coulomb interaction                   ... done (   0.0 sec)
Reading the grid                                   ... done
Mapping shells                                     ... done
Starting the XC term evaluation                    ... done (   0.0 sec)
  promolecular density results
     # of electrons  =     58.999978508
     EX              =   -136.487148598
     EC              =     -2.730202028
     EX+EC           =   -139.217350625
Transforming the Hamiltonian                       ... done (   0.0 sec)
Diagonalizing the Hamiltonian                      ... done (   0.0 sec)
Back transforming the eigenvectors                 ... done (   0.0 sec)
Now organizing SCF variables                       ... done
                      ------------------
                      INITIAL GUESS DONE (   0.4 sec)
                      ------------------
--------------
SCF ITERATIONS
--------------
ITER       Energy         Delta-E        Max-DP      RMS-DP      [F,P]     Damp
               ***  Starting incremental Fock matrix formation  ***
  0  -3618.6192021031   0.000000000000 0.09306825  0.00165863  0.1176762 0.7000
  1  -3618.6467808830  -0.027578779896 0.04193655  0.00057487  0.0370758 0.7000
                               ***Turning on DIIS***
  2  -3618.6559505194  -0.009169636412 0.09502829  0.00185255  0.0202930 0.0000
  3  -3618.6768435676  -0.020893048163 0.01940342  0.00037396  0.0217064 0.0000
  4  -3618.6791559840  -0.002312416421 0.03433925  0.00065251  0.0205517 0.0000
  5  -3618.6801274434  -0.000971459418 0.00938539  0.00017906  0.0037862 0.0000
  6  -3618.6802417437  -0.000114300278 0.00406686  0.00006274  0.0016535 0.0000
  7  -3618.6802808121  -0.000039068405 0.01251797  0.00010162  0.0008078 0.0000
  8  -3618.6803042260  -0.000023413838 0.00139056  0.00002198  0.0020102 0.0000
  9  -3618.6803134319  -0.000009205938 0.00180417  0.00001435  0.0004277 0.0000
 10  -3618.6803130538   0.000000378065 0.00062275  0.00000489  0.0004582 0.0000
 11  -3618.6803136492  -0.000000595337 0.00025549  0.00000270  0.0000930 0.0000
 12  -3618.6803139475  -0.000000298280 0.00007901  0.00000142  0.0000664 0.0000
                 **** Energy Check signals convergence ****

               *****************************************************
               *                     SUCCESS                       *
               *           SCF CONVERGED AFTER  13 CYCLES          *
               *****************************************************


----------------
TOTAL SCF ENERGY
----------------

Total Energy       :        -3618.68031412 Eh          -98469.29743 eV

Components:
Nuclear Repulsion  :          189.63872443 Eh            5160.33204 eV
Electronic Energy  :        -3808.31903855 Eh         -103629.62947 eV
One Electron Energy:        -5399.82558801 Eh         -146936.72437 eV
Two Electron Energy:         1591.50654946 Eh           43307.09490 eV

Virial components:
Potential Energy   :        -7231.55284643 Eh         -196780.55708 eV
Kinetic Energy     :         3612.87253232 Eh           98311.25965 eV
Virial Ratio       :            2.00160752


DFT components:
N(Alpha)           :       31.999995122516 electrons
N(Beta)            :       26.999996367095 electrons
N(Total)           :       58.999991489611 electrons
E(X)               :     -137.279947838394 Eh       
E(C)               :       -2.724960834187 Eh       
E(XC)              :     -140.004908672581 Eh       
DFET-embed. en.    :        0.000000000000 Eh       

---------------
SCF CONVERGENCE
---------------

  Last Energy change         ...   -1.6887e-07  Tolerance :   1.0000e-06
  Last MAX-Density change    ...    2.2967e-05  Tolerance :   1.0000e-05
  Last RMS-Density change    ...    2.4837e-07  Tolerance :   1.0000e-06
  Last DIIS Error            ...    7.0119e-06  Tolerance :   1.0000e-06

             **** THE GBW FILE WAS UPDATED (22_CrBr.gbw) ****
             **** DENSITY FILE WAS UPDATED (22_CrBr.scfp) ****
             **** ENERGY FILE WAS UPDATED (22_CrBr.en.tmp) ****
----------------------
UHF SPIN CONTAMINATION
----------------------

Warning: in a DFT calculation there is little theoretical justification to 
         calculate <S**2> as in Hartree-Fock theory. We will do it anyways
         but you should keep in mind that the values have only limited relevance

Expectation value of <S**2>     :     8.772291
Ideal value S*(S+1) for S=2.5   :     8.750000
Deviation                       :     0.022291

             **** THE GBW FILE WAS UPDATED (22_CrBr.gbw) ****
             **** DENSITY FILE WAS UPDATED (22_CrBr.scfp) ****
----------------
ORBITAL ENERGIES
----------------
                 SPIN UP ORBITALS
  NO   OCC          E(Eh)            E(eV) 
   0   1.0000    -481.693911    -13107.5577 
   1   1.0000    -214.923304     -5848.3604 
   2   1.0000     -61.911486     -1684.6972 
   3   1.0000     -55.744070     -1516.8733 
   4   1.0000     -55.743163     -1516.8486 
   5   1.0000     -55.743163     -1516.8486 
   6   1.0000     -24.319105      -661.7565 
   7   1.0000     -20.622074      -561.1552 
   8   1.0000     -20.621660      -561.1439 
   9   1.0000     -20.621660      -561.1439 
  10   1.0000      -8.437262      -229.5896 
  11   1.0000      -6.275835      -170.7741 
  12   1.0000      -6.272420      -170.6812 
  13   1.0000      -6.272420      -170.6812 
  14   1.0000      -2.788155       -75.8695 
  15   1.0000      -2.444319       -66.5133 
  16   1.0000      -2.443387       -66.4879 
  17   1.0000      -2.443387       -66.4879 
  18   1.0000      -2.440685       -66.4144 
  19   1.0000      -2.440636       -66.4131 
  20   1.0000      -1.766980       -48.0820 
  21   1.0000      -1.760501       -47.9057 
  22   1.0000      -1.760501       -47.9057 
  23   1.0000      -0.665463       -18.1082 
  24   1.0000      -0.287077        -7.8118 
  25   1.0000      -0.252305        -6.8656 
  26   1.0000      -0.252305        -6.8656 
  27   1.0000      -0.185602        -5.0505 
  28   1.0000      -0.185601        -5.0504 
  29   1.0000      -0.184120        -5.0102 
  30   1.0000      -0.179861        -4.8943 
  31   1.0000      -0.179861        -4.8943 
  32   0.0000      -0.127442        -3.4679 
  33   0.0000      -0.042155        -1.1471 
  34   0.0000      -0.042155        -1.1471 
  35   0.0000      -0.002751        -0.0749 
  36   0.0000       0.001223         0.0333 
  37   0.0000       0.021170         0.5761 
  38   0.0000       0.021170         0.5761 
  39   0.0000       0.038041         1.0352 
  40   0.0000       0.038043         1.0352 
  41   0.0000       0.040394         1.0992 
  42   0.0000       0.045075         1.2266 
  43   0.0000       0.045075         1.2266 
  44   0.0000       0.052781         1.4362 
  45   0.0000       0.096842         2.6352 
  46   0.0000       0.097997         2.6666 
  47   0.0000       0.097997         2.6666 
  48   0.0000       0.105154         2.8614 
  49   0.0000       0.133376         3.6294 
  50   0.0000       0.133376         3.6294 
  51   0.0000       0.159626         4.3436 
  52   0.0000       0.173527         4.7219 
  53   0.0000       0.173528         4.7219 
  54   0.0000       0.177837         4.8392 
  55   0.0000       0.190724         5.1899 
  56   0.0000       0.190724         5.1899 
  57   0.0000       0.210367         5.7244 
  58   0.0000       0.210367         5.7244 
  59   0.0000       0.265136         7.2147 
  60   0.0000       0.284361         7.7379 
  61   0.0000       0.284361         7.7379 
  62   0.0000       0.324240         8.8230 
  63   0.0000       0.456653        12.4262 
  64   0.0000       0.456653        12.4262 
  65   0.0000       0.490364        13.3435 
  66   0.0000       0.490364        13.3435 
  67   0.0000       0.526691        14.3320 
  68   0.0000       0.526694        14.3321 
  69   0.0000       0.544842        14.8259 
  70   0.0000       0.552795        15.0423 
  71   0.0000       0.552795        15.0423 
  72   0.0000       0.571057        15.5393 
  73   0.0000       0.617054        16.7909 
  74   0.0000       0.617057        16.7910 
  75   0.0000       0.618671        16.8349 
  76   0.0000       0.618671        16.8349 
  77   0.0000       0.631574        17.1860 
  78   0.0000       0.679047        18.4778 
  79   0.0000       0.679047        18.4778 
  80   0.0000       0.701587        19.0911 
  81   0.0000       0.753359        20.4999 
  82   0.0000       0.753359        20.4999 
  83   0.0000       0.779189        21.2028 
  84   0.0000       0.793088        21.5810 
  85   0.0000       0.793088        21.5810 
  86   0.0000       0.807610        21.9762 
  87   0.0000       0.807610        21.9762 
  88   0.0000       0.924524        25.1576 
  89   0.0000       0.924528        25.1577 
  90   0.0000       1.008333        27.4381 
  91   0.0000       1.202412        32.7193 
  92   0.0000       1.202412        32.7193 
  93   0.0000       1.392308        37.8866 
  94   0.0000       1.676387        45.6168 
  95   0.0000       1.713414        46.6244 
  96   0.0000       1.713414        46.6244 
  97   0.0000       1.730066        47.0775 
  98   0.0000       1.730069        47.0776 
  99   0.0000       1.745053        47.4853 
 100   0.0000       1.745053        47.4853 
 101   0.0000       1.787642        48.6442 
 102   0.0000       1.880159        51.1617 
 103   0.0000       1.880159        51.1617 
 104   0.0000       1.965536        53.4850 
 105   0.0000       1.965548        53.4853 
 106   0.0000       1.966302        53.5058 
 107   0.0000       2.016122        54.8615 
 108   0.0000       2.016122        54.8615 
 109   0.0000       2.060213        56.0612 
 110   0.0000       2.068264        56.2803 
 111   0.0000       2.068264        56.2803 
 112   0.0000       2.082138        56.6579 
 113   0.0000       2.082173        56.6588 
 114   0.0000       2.108965        57.3879 
 115   0.0000       2.109014        57.3892 
 116   0.0000       2.111235        57.4496 
 117   0.0000       2.111235        57.4496 
 118   0.0000       2.125604        57.8406 
 119   0.0000       2.125604        57.8406 
 120   0.0000       2.219350        60.3916 
 121   0.0000       2.219351        60.3916 
 122   0.0000       2.244974        61.0888 
 123   0.0000       2.244974        61.0888 
 124   0.0000       2.323384        63.2225 
 125   0.0000       2.499001        68.0013 
 126   0.0000       2.518098        68.5209 
 127   0.0000       2.518098        68.5209 
 128   0.0000       2.845416        77.4277 
 129   0.0000       3.206152        87.2438 
 130   0.0000       3.206162        87.2441 
 131   0.0000       3.399669        92.5097 
 132   0.0000       3.399669        92.5097 
 133   0.0000       4.028986       109.6343 
 134   0.0000       4.266083       116.0860 
 135   0.0000       6.036921       164.2730 
 136   0.0000       6.036921       164.2730 
 137   0.0000       6.041552       164.3990 
 138   0.0000       6.041585       164.3999 
 139   0.0000       6.085361       165.5911 
 140   0.0000       6.085361       165.5911 
 141   0.0000       6.229475       169.5126 
 142   0.0000       6.556739       178.4179 
 143   0.0000       6.556739       178.4179 
 144   0.0000       6.557432       178.4368 
 145   0.0000       6.558007       178.4524 
 146   0.0000       6.594194       179.4371 
 147   0.0000       6.594295       179.4399 
 148   0.0000       6.706317       182.4882 
 149   0.0000       6.706317       182.4882 
 150   0.0000       6.804349       185.1558 
 151   0.0000       7.649748       208.1602 

                 SPIN DOWN ORBITALS
  NO   OCC          E(Eh)            E(eV) 
   0   1.0000    -481.694073    -13107.5621 
   1   1.0000    -214.922604     -5848.3414 
   2   1.0000     -61.911518     -1684.6981 
   3   1.0000     -55.744442     -1516.8834 
   4   1.0000     -55.743156     -1516.8484 
   5   1.0000     -55.743156     -1516.8484 
   6   1.0000     -24.265571      -660.2998 
   7   1.0000     -20.582234      -560.0711 
   8   1.0000     -20.576795      -559.9230 
   9   1.0000     -20.576795      -559.9230 
  10   1.0000      -8.437454      -229.5948 
  11   1.0000      -6.276501      -170.7923 
  12   1.0000      -6.272412      -170.6810 
  13   1.0000      -6.272412      -170.6810 
  14   1.0000      -2.629804       -71.5606 
  15   1.0000      -2.444978       -66.5312 
  16   1.0000      -2.443851       -66.5006 
  17   1.0000      -2.443851       -66.5006 
  18   1.0000      -2.440559       -66.4110 
  19   1.0000      -2.440509       -66.4096 
  20   1.0000      -1.612735       -43.8848 
  21   1.0000      -1.597373       -43.4667 
  22   1.0000      -1.597373       -43.4667 
  23   1.0000      -0.666652       -18.1405 
  24   1.0000      -0.277503        -7.5513 
  25   1.0000      -0.241709        -6.5772 
  26   1.0000      -0.241709        -6.5772 
  27   0.0000      -0.097330        -2.6485 
  28   0.0000      -0.051562        -1.4031 
  29   0.0000      -0.045614        -1.2412 
  30   0.0000      -0.045614        -1.2412 
  31   0.0000      -0.040830        -1.1110 
  32   0.0000      -0.040829        -1.1110 
  33   0.0000      -0.002058        -0.0560 
  34   0.0000      -0.002058        -0.0560 
  35   0.0000       0.010304         0.2804 
  36   0.0000       0.015323         0.4170 
  37   0.0000       0.035369         0.9624 
  38   0.0000       0.035369         0.9624 
  39   0.0000       0.052452         1.4273 
  40   0.0000       0.058357         1.5880 
  41   0.0000       0.058361         1.5881 
  42   0.0000       0.060165         1.6372 
  43   0.0000       0.060165         1.6372 
  44   0.0000       0.068735         1.8704 
  45   0.0000       0.104287         2.8378 
  46   0.0000       0.104287         2.8378 
  47   0.0000       0.105582         2.8730 
  48   0.0000       0.134241         3.6529 
  49   0.0000       0.166104         4.5199 
  50   0.0000       0.166104         4.5199 
  51   0.0000       0.182733         4.9724 
  52   0.0000       0.188406         5.1268 
  53   0.0000       0.188407         5.1268 
  54   0.0000       0.193092         5.2543 
  55   0.0000       0.222618         6.0577 
  56   0.0000       0.222618         6.0577 
  57   0.0000       0.238339         6.4855 
  58   0.0000       0.238339         6.4855 
  59   0.0000       0.286412         7.7937 
  60   0.0000       0.295858         8.0507 
  61   0.0000       0.295858         8.0507 
  62   0.0000       0.343639         9.3509 
  63   0.0000       0.461897        12.5689 
  64   0.0000       0.461897        12.5689 
  65   0.0000       0.534073        14.5329 
  66   0.0000       0.534073        14.5329 
  67   0.0000       0.557054        15.1582 
  68   0.0000       0.557056        15.1583 
  69   0.0000       0.569631        15.5004 
  70   0.0000       0.580354        15.7922 
  71   0.0000       0.584372        15.9016 
  72   0.0000       0.584372        15.9016 
  73   0.0000       0.620506        16.8848 
  74   0.0000       0.620508        16.8849 
  75   0.0000       0.659922        17.9574 
  76   0.0000       0.659922        17.9574 
  77   0.0000       0.664435        18.0802 
  78   0.0000       0.727178        19.7875 
  79   0.0000       0.727178        19.7875 
  80   0.0000       0.735078        20.0025 
  81   0.0000       0.794345        21.6152 
  82   0.0000       0.796466        21.6729 
  83   0.0000       0.796466        21.6729 
  84   0.0000       0.826164        22.4811 
  85   0.0000       0.826165        22.4811 
  86   0.0000       0.836696        22.7677 
  87   0.0000       0.836696        22.7677 
  88   0.0000       0.947339        25.7784 
  89   0.0000       0.947346        25.7786 
  90   0.0000       1.050983        28.5987 
  91   0.0000       1.240646        33.7597 
  92   0.0000       1.240646        33.7597 
  93   0.0000       1.442106        39.2417 
  94   0.0000       1.741390        47.3856 
  95   0.0000       1.800212        48.9863 
  96   0.0000       1.800212        48.9863 
  97   0.0000       1.820683        49.5433 
  98   0.0000       1.820683        49.5433 
  99   0.0000       1.834009        49.9059 
 100   0.0000       1.834017        49.9061 
 101   0.0000       1.851512        50.3822 
 102   0.0000       1.900939        51.7272 
 103   0.0000       1.900939        51.7272 
 104   0.0000       1.971356        53.6433 
 105   0.0000       1.971376        53.6439 
 106   0.0000       1.974780        53.7365 
 107   0.0000       2.023625        55.0656 
 108   0.0000       2.023625        55.0656 
 109   0.0000       2.084687        56.7272 
 110   0.0000       2.084726        56.7283 
 111   0.0000       2.086639        56.7803 
 112   0.0000       2.097437        57.0742 
 113   0.0000       2.097437        57.0742 
 114   0.0000       2.120924        57.7133 
 115   0.0000       2.120924        57.7133 
 116   0.0000       2.188130        59.5421 
 117   0.0000       2.188152        59.5426 
 118   0.0000       2.204477        59.9869 
 119   0.0000       2.204477        59.9869 
 120   0.0000       2.284468        62.1635 
 121   0.0000       2.284492        62.1642 
 122   0.0000       2.353937        64.0539 
 123   0.0000       2.353937        64.0539 
 124   0.0000       2.395671        65.1895 
 125   0.0000       2.539290        69.0976 
 126   0.0000       2.573261        70.0220 
 127   0.0000       2.573261        70.0220 
 128   0.0000       2.916161        79.3528 
 129   0.0000       3.339471        90.8716 
 130   0.0000       3.339473        90.8717 
 131   0.0000       3.525012        95.9205 
 132   0.0000       3.525012        95.9205 
 133   0.0000       4.074876       110.8830 
 134   0.0000       4.327475       117.7566 
 135   0.0000       6.218898       169.2248 
 136   0.0000       6.218898       169.2248 
 137   0.0000       6.233858       169.6319 
 138   0.0000       6.233918       169.6335 
 139   0.0000       6.264528       170.4665 
 140   0.0000       6.264528       170.4665 
 141   0.0000       6.395809       174.0388 
 142   0.0000       6.682881       181.8504 
 143   0.0000       6.683306       181.8620 
 144   0.0000       6.686000       181.9353 
 145   0.0000       6.686000       181.9353 
 146   0.0000       6.716950       182.7775 
 147   0.0000       6.716979       182.7783 
 148   0.0000       6.821896       185.6332 
 149   0.0000       6.821896       185.6332 
 150   0.0000       6.917207       188.2268 
 151   0.0000       7.800581       212.2646 

                    ********************************
                    * MULLIKEN POPULATION ANALYSIS *
                    ********************************

--------------------------------------------
MULLIKEN ATOMIC CHARGES AND SPIN POPULATIONS
--------------------------------------------
   0 Cr:    0.225165    5.120886
   1 Br:   -0.225165   -0.120886
Sum of atomic charges         :    0.0000000
Sum of atomic spin populations:    5.0000000

-----------------------------------------------------
MULLIKEN REDUCED ORBITAL CHARGES AND SPIN POPULATIONS
-----------------------------------------------------
CHARGE
  0 Crs       :     6.701635  s :     6.701635
      pz      :     4.100340  p :    12.207655
      px      :     4.053657
      py      :     4.053657
      dz2     :     0.789203  d :     4.840885
      dxz     :     1.027076
      dyz     :     1.027076
      dx2y2   :     0.998765
      dxy     :     0.998765
      f0      :     0.007954  f :     0.023049
      f+1     :     0.007452
      f-1     :     0.007452
      f+2     :     0.000096
      f-2     :     0.000096
      f+3     :     0.000000
      f-3     :     0.000000
      g0      :     0.000612  g :     0.001611
      g+1     :     0.000496
      g-1     :     0.000496
      g+2     :     0.000003
      g-2     :     0.000003
      g+3     :     0.000000
      g-3     :     0.000000
      g+4     :     0.000000
      g-4     :     0.000000
  1 Brs       :     7.942151  s :     7.942151
      pz      :     5.458177  p :    17.264399
      px      :     5.903111
      py      :     5.903111
      dz2     :     2.000226  d :    10.016575
      dxz     :     2.007451
      dyz     :     2.007451
      dx2y2   :     2.000724
      dxy     :     2.000724
      f0      :    -0.000298  f :     0.002040
      f+1     :     0.000756
      f-1     :     0.000756
      f+2     :     0.000413
      f-2     :     0.000413
      f+3     :     0.000000
      f-3     :     0.000000

SPIN
  0 Crs       :     0.495381  s :     0.495381
      pz      :     0.014443  p :     0.066932
      px      :     0.026244
      py      :     0.026244
      dz2     :     0.651863  d :     4.558382
      dxz     :     0.954495
      dyz     :     0.954495
      dx2y2   :     0.998765
      dxy     :     0.998765
      f0      :    -0.000311  f :     0.000509
      f+1     :     0.000318
      f-1     :     0.000318
      f+2     :     0.000092
      f-2     :     0.000092
      f+3     :     0.000000
      f-3     :     0.000000
      g0      :    -0.000181  g :    -0.000319
      g+1     :    -0.000072
      g-1     :    -0.000072
      g+2     :     0.000003
      g-2     :     0.000003
      g+3     :     0.000000
      g-3     :     0.000000
      g+4     :     0.000000
      g-4     :     0.000000
  1 Brs       :    -0.013773  s :    -0.013773
      pz      :    -0.146575  p :    -0.114553
      px      :     0.016011
      py      :     0.016011
      dz2     :    -0.000593  d :     0.006861
      dxz     :     0.003000
      dyz     :     0.003000
      dx2y2   :     0.000727
      dxy     :     0.000727
      f0      :    -0.000255  f :     0.000579
      f+1     :     0.000004
      f-1     :     0.000004
      f+2     :     0.000412
      f-2     :     0.000412
      f+3     :    -0.000000
      f-3     :    -0.000000


                     *******************************
                     * LOEWDIN POPULATION ANALYSIS *
                     *******************************

-------------------------------------------
LOEWDIN ATOMIC CHARGES AND SPIN POPULATIONS
-------------------------------------------
   0 Cr:   -0.087975    4.900614
   1 Br:    0.087975    0.099386

----------------------------------------------------
LOEWDIN REDUCED ORBITAL CHARGES AND SPIN POPULATIONS
----------------------------------------------------
CHARGE
  0 Crs       :     6.470675  s :     6.470675
      pz      :     4.182758  p :    12.354268
      px      :     4.085755
      py      :     4.085755
      dz2     :     0.917152  d :     5.045682
      dxz     :     1.070355
      dyz     :     1.070355
      dx2y2   :     0.993910
      dxy     :     0.993910
      f0      :     0.074876  f :     0.205253
      f+1     :     0.064875
      f-1     :     0.064875
      f+2     :     0.000314
      f-2     :     0.000314
      f+3     :     0.000000
      f-3     :     0.000000
      g0      :     0.005159  g :     0.012096
      g+1     :     0.003466
      g-1     :     0.003466
      g+2     :     0.000003
      g-2     :     0.000003
      g+3     :     0.000000
      g-3     :     0.000000
      g+4     :     0.000000
      g-4     :     0.000000
  1 Brs       :     7.595073  s :     7.595073
      pz      :     5.609632  p :    17.049592
      px      :     5.719980
      py      :     5.719980
      dz2     :     2.101493  d :    10.175533
      dxz     :     2.034104
      dyz     :     2.034104
      dx2y2   :     2.002916
      dxy     :     2.002916
      f0      :     0.043183  f :     0.091828
      f+1     :     0.021465
      f-1     :     0.021465
      f+2     :     0.002857
      f-2     :     0.002858
      f+3     :     0.000000
      f-3     :     0.000000

SPIN
  0 Crs       :     0.391225  s :     0.391225
      pz      :    -0.005732  p :     0.071098
      px      :     0.038415
      py      :     0.038415
      dz2     :     0.628170  d :     4.433894
      dxz     :     0.908955
      dyz     :     0.908955
      dx2y2   :     0.993907
      dxy     :     0.993907
      f0      :    -0.001808  f :     0.004715
      f+1     :     0.002965
      f-1     :     0.002965
      f+2     :     0.000297
      f-2     :     0.000297
      f+3     :     0.000000
      f-3     :     0.000000
      g0      :    -0.000506  g :    -0.000318
      g+1     :     0.000091
      g-1     :     0.000091
      g+2     :     0.000003
      g-2     :     0.000003
      g+3     :     0.000000
      g-3     :     0.000000
      g+4     :     0.000000
      g-4     :     0.000000
  1 Brs       :     0.014064  s :     0.014064
      pz      :    -0.038270  p :    -0.010123
      px      :     0.014074
      py      :     0.014074
      dz2     :     0.010885  d :     0.059631
      dxz     :     0.021437
      dyz     :     0.021437
      dx2y2   :     0.002936
      dxy     :     0.002936
      f0      :     0.001973  f :     0.035814
      f+1     :     0.014063
      f-1     :     0.014063
      f+2     :     0.002857
      f-2     :     0.002857
      f+3     :    -0.000000
      f-3     :    -0.000000


                      *****************************
                      * MAYER POPULATION ANALYSIS *
                      *****************************

  NA   - Mulliken gross atomic population
  ZA   - Total nuclear charge
  QA   - Mulliken gross atomic charge
  VA   - Mayer's total valence
  BVA  - Mayer's bonded valence
  FA   - Mayer's free valence

  ATOM       NA         ZA         QA         VA         BVA        FA
  0 Cr    23.7748    24.0000     0.2252     6.0717     1.1904     4.8813
  1 Br    35.2252    35.0000    -0.2252     1.2104     1.1904     0.0200

  Mayer bond orders larger than 0.100000
B(  0-Cr,  1-Br) :   1.1904 

-------
TIMINGS
-------

Total SCF time: 0 days 0 hours 0 min 4 sec 

Total time                  ....       4.078 sec
Sum of individual times     ....       3.912 sec  ( 95.9%)

Fock matrix formation       ....       3.430 sec  ( 84.1%)
  Split-RI-J                ....       2.360 sec  ( 68.8% of F)
  XC integration            ....       0.927 sec  ( 27.0% of F)
    Basis function eval.    ....       0.099 sec  ( 10.7% of XC)
    Density eval.           ....       0.109 sec  ( 11.8% of XC)
    XC-Functional eval.     ....       0.023 sec  (  2.4% of XC)
    XC-Potential eval.      ....       0.255 sec  ( 27.6% of XC)
Diagonalization             ....       0.076 sec  (  1.9%)
Density matrix formation    ....       0.010 sec  (  0.2%)
Population analysis         ....       0.007 sec  (  0.2%)
Initial guess               ....       0.130 sec  (  3.2%)
Orbital Transformation      ....       0.000 sec  (  0.0%)
Orbital Orthonormalization  ....       0.000 sec  (  0.0%)
DIIS solution               ....       0.029 sec  (  0.7%)
Grid generation             ....       0.231 sec  (  5.7%)


-------------------------------------------------------------------------------
                          DFT DISPERSION CORRECTION                            
                                                                               
                              DFTD3 V3.1  Rev 1                                
                          USING Becke-Johnson damping                          
-------------------------------------------------------------------------------
The TPSS functional is recognized
Active option DFTDOPT                   ...         4   

molecular C6(AA) [au] = 1000.724547 


            DFT-D V3
 parameters
 s6 scaling factor         :     1.0000 
 a1 scaling factor         :     0.4535 
 s8 scaling factor         :     1.9435 
 a2 scaling factor         :     4.4752 
 ad hoc parameters k1-k3   :    16.0000     1.3333    -4.0000 

 Edisp/kcal,au: -1.234247923064  -0.001966899055 
 E6   /kcal   :  -0.396081477 
 E8   /kcal   :  -0.838166446 
 % E8         :  67.909082998 

-------------------------   ----------------
Dispersion correction           -0.001966899
-------------------------   ----------------


-------------------------   --------------------
FINAL SINGLE POINT ENERGY     -3618.682281015382
-------------------------   --------------------


                            ***************************************
                            *     ORCA property calculations      *
                            ***************************************

                                    ---------------------
                                    Active property flags
                                    ---------------------
   (+) Dipole Moment


------------------------------------------------------------------------------
                       ORCA ELECTRIC PROPERTIES CALCULATION
------------------------------------------------------------------------------

Dipole Moment Calculation                       ... on
Quadrupole Moment Calculation                   ... off
Polarizability Calculation                      ... off
GBWName                                         ... 22_CrBr.gbw
Electron density file                           ... 22_CrBr.scfp
The origin for moment calculation is the CENTER OF MASS  = ( 0.000000,  0.000000  2.358196)

-------------
DIPOLE MOMENT
-------------
                                X             Y             Z
Electronic contribution:      0.00000       0.00000       1.35382
Nuclear contribution   :      0.00000       0.00000      -3.27761
                        -----------------------------------------
Total Dipole Moment    :      0.00000       0.00000      -1.92379
                        -----------------------------------------
Magnitude (a.u.)       :      1.92379
Magnitude (Debye)      :      4.88990



--------------------
Rotational spectrum 
--------------------
 
Rotational constants in cm-1:     0.000000     0.097406     0.097406 
Rotational constants in MHz :     0.000000  2920.152240  2920.152240 

 Dipole components along the rotational axes: 
x,y,z [a.u.] :    -1.923794     0.000000     0.000000 
x,y,z [Debye]:    -4.889896     0.000000     0.000000 

 

Timings for individual modules:

Sum of individual times         ...        9.441 sec (=   0.157 min)
GTO integral calculation        ...        5.032 sec (=   0.084 min)  53.3 %
SCF iterations                  ...        4.410 sec (=   0.073 min)  46.7 %
                             ****ORCA TERMINATED NORMALLY****
TOTAL RUN TIME: 0 days 0 hours 0 minutes 10 seconds 29 msec
