
                                 *****************
                                 * O   R   C   A *
                                 *****************

           --- An Ab Initio, DFT and Semiempirical electronic structure package ---

                  #######################################################
                  #                        -***-                        #
                  #          Department of theory and spectroscopy      #
                  #               Directorship: Frank Neese             #
                  #        Max Planck Institute fuer Kohlenforschung    #
                  #                Kaiser Wilhelm Platz 1               #
                  #                 D-45470 Muelheim/Ruhr               #
                  #                      Germany                        #
                  #                                                     #
                  #                  All rights reserved                #
                  #                        -***-                        #
                  #######################################################


                         Program Version 4.2.0 -  RELEASE  -


 With contributions from (in alphabetic order):
   Daniel Aravena         : Magnetic Suceptibility
   Michael Atanasov       : Ab Initio Ligand Field Theory (pilot matlab implementation)
   Alexander A. Auer      : GIAO ZORA, VPT2
   Ute Becker             : Parallelization
   Giovanni Bistoni       : ED, misc. LED, open-shell LED, HFLED
   Martin Brehm           : Molecular dynamics
   Dmytro Bykov           : SCF Hessian
   Vijay G. Chilkuri      : MRCI spin determinant printing, contributions to CSF-ICE
   Dipayan Datta          : RHF DLPNO-CCSD density
   Achintya Kumar Dutta   : EOM-CC, STEOM-CC
   Dmitry Ganyushin       : Spin-Orbit,Spin-Spin,Magnetic field MRCI
   Miquel Garcia          : C-PCM Hessian, Gaussian charge scheme
   Yang Guo               : DLPNO-NEVPT2, CIM, IAO-localization
   Andreas Hansen         : Spin unrestricted coupled pair/coupled cluster methods
   Benjamin Helmich-Paris : CASSCF linear response (MC-RPA)
   Lee Huntington         : MR-EOM, pCC
   Robert Izsak           : Overlap fitted RIJCOSX, COSX-SCS-MP3, EOM
   Christian Kollmar      : KDIIS, OOCD, Brueckner-CCSD(T), CCSD density
   Simone Kossmann        : Meta GGA functionals, TD-DFT gradient, OOMP2, MP2 Hessian
   Martin Krupicka        : AUTO-CI
   Lucas Lang             : DCDCAS
   Dagmar Lenk            : GEPOL surface, SMD
   Dimitrios Liakos       : Extrapolation schemes; Compound Job, initial MDCI parallelization
   Dimitrios Manganas     : Further ROCIS development; embedding schemes
   Dimitrios Pantazis     : SARC Basis sets
   Taras Petrenko         : DFT Hessian,TD-DFT gradient, ASA, ECA, R-Raman, ABS, FL, XAS/XES, NRVS
   Peter Pinski           : DLPNO-MP2, DLPNO-MP2 Gradient
   Christoph Reimann      : Effective Core Potentials
   Marius Retegan         : Local ZFS, SOC
   Christoph Riplinger    : Optimizer, TS searches, QM/MM, DLPNO-CCSD(T), (RO)-DLPNO pert. Triples
   Tobias Risthaus        : Range-separated hybrids, TD-DFT gradient, RPA, STAB
   Michael Roemelt        : Original ROCIS implementation
   Masaaki Saitow         : Open-shell DLPNO-CCSD energy and density
   Barbara Sandhoefer     : DKH picture change effects
   Avijit Sen             : IP-ROCIS
   Kantharuban Sivalingam : CASSCF convergence, NEVPT2, FIC-MRCI
   Bernardo de Souza      : ESD, SOC TD-DFT
   Georgi Stoychev        : AutoAux, RI-MP2 NMR
   Willem Van den Heuvel  : Paramagnetic NMR
   Boris Wezisla          : Elementary symmetry handling
   Frank Wennmohs         : Technical directorship


 We gratefully acknowledge several colleagues who have allowed us to
 interface, adapt or use parts of their codes:
   Stefan Grimme, W. Hujo, H. Kruse,             : VdW corrections, initial TS optimization,
                  C. Bannwarth                     DFT functionals, gCP, sTDA/sTD-DF
   Ed Valeev, F. Pavosevic, A. Kumar             : LibInt (2-el integral package), F12 methods
   Garnet Chan, S. Sharma, J. Yang, R. Olivares  : DMRG
   Ulf Ekstrom                                   : XCFun DFT Library
   Mihaly Kallay                                 : mrcc  (arbitrary order and MRCC methods)
   Andreas Klamt, Michael Diedenhofen            : otool_cosmo (COSMO solvation model)
   Jiri Pittner, Ondrej Demel                    : Mk-CCSD
   Frank Weinhold                                : gennbo (NPA and NBO analysis)
   Christopher J. Cramer and Donald G. Truhlar   : smd solvation model
   Lars Goerigk                                  : TD-DFT with DH, B97 family of functionals
   V. Asgeirsson, H. Jonsson                     : NEB implementation
   FAccTs GmbH                                   : IRC, NEB, NEB-TS, Multilevel, MM, QM/MM, CI optimization
   S Lehtola, MJT Oliveira, MAL Marques          : LibXC Library


 Your calculation uses the libint2 library for the computation of 2-el integrals
 For citations please refer to: http://libint.valeyev.net

 Your ORCA version has been built with support for libXC version: 4.2.3
 For citations please refer to: https://tddft.org/programs/libxc/

 This ORCA versions uses:
   CBLAS   interface :  Fast vector & matrix operations
   LAPACKE interface :  Fast linear algebra routines
   SCALAPACK package :  Parallel linear algebra routines


Your calculation utilizes the atom-pairwise dispersion correction
with the Becke-Johnson damping scheme (D3BJ)
Cite in your paper:
S.Grimme, S.Ehrlich, L.Goerigk, J Comput Chem, (2011), 32, 1456–1465 
S.Grimme, J.Antony, S.Ehrlich and H.Krieg, J.Chem.Phys., 132, (2010), 154104 
   

----- Orbital basis set information -----
Your calculation utilizes the basis: aug-cc-pVTZ 
    H, B-Ne : Obtained from the ccRepo (grant-hill.group.shef.ac.uk/ccrepo) Feb. 2017
              R. A. Kendall, T. H. Dunning, Jr., R. J. Harrison, J. Chem. Phys. 96, 6796 (1992)
         He : Obtained from the ccRepo (grant-hill.group.shef.ac.uk/ccrepo) Feb. 2017
              D. E. Woon, T. H. Dunning, Jr., J. Chem. Phys. 100, 2975 (1994)
  Li-Be, Na : Obtained from the ccRepo (grant-hill.group.shef.ac.uk/ccrepo) Feb. 2017
              B. P. Prascher, D. E. Woon, K. A. Peterson, T. H. Dunning, Jr., A. K. Wilson, Theor. Chem. Acc. 128, 69 (2011)
         Mg : Obtained from the Peterson Research Group Website (tyr0.chem.wsu.edu/~kipeters) Feb. 2017
              B. P. Prascher, D. E. Woon, K. A. Peterson, T. H. Dunning, Jr., A. K. Wilson, Theor. Chem. Acc. 128, 69 (2011)
      Al-Ar : Obtained from the ccRepo (grant-hill.group.shef.ac.uk/ccrepo) Feb. 2017
              D. E. Woon, T. H. Dunning, Jr., J. Chem. Phys. 98, 1358 (1993)
      Sc-Zn : Obtained from the ccRepo (grant-hill.group.shef.ac.uk/ccrepo) Feb. 2017
              N. B. Balabanov, K. A. Peterson, J. Chem. Phys. 123, 064107 (2005)
              N. B. Balabanov, K. A. Peterson, J. Chem. Phys. 125, 074110 (2006)
      Ga-Kr : Obtained from the ccRepo (grant-hill.group.shef.ac.uk/ccrepo) Feb. 2017
              A. K. Wilson, D. E. Woon, K. A. Peterson, T. H. Dunning, Jr., J. Chem. Phys. 110, 7667 (1999)
     Ag, Au : Obtained from the Peterson Research Group Website (tyr0.chem.wsu.edu/~kipeters) Feb. 2017
              K. A. Peterson, C. Puzzarini, Theor. Chem. Acc. 114, 283 (2005)

----- AuxJ basis set information -----
Your calculation utilizes the auxiliary basis: def2/J
   F. Weigend, Phys. Chem. Chem. Phys. 8, 1057 (2006).

================================================================================
                                        WARNINGS
                       Please study these warnings very carefully!
================================================================================


WARNING: your system is open-shell and RHF/RKS was chosen
  ===> : WILL SWITCH to UHF/UKS


INFO   : the flag for use of LIBINT has been found!

================================================================================
                                       INPUT FILE
================================================================================
NAME = 30_MnS.in
|  1> #
|  2> # 30_MnS tpss/aug-cc-pvtz
|  3> #
|  4> ! tpss d3bj aug-cc-pvtz def2/j grid4 nofinalgrid
|  5> 
|  6> *xyz 0 6
|  7>   Mn  0.00000000000000      0.00000000000000     -0.02260858554296
|  8>   S   0.00000000000000      0.00000000000000      2.02260858554296
|  9> *
| 10> 
| 11> %pal
| 12> nprocs 24
| 13> end
| 14> 
| 15> 
| 16>                          ****END OF INPUT****
================================================================================

                       ****************************
                       * Single Point Calculation *
                       ****************************

---------------------------------
CARTESIAN COORDINATES (ANGSTROEM)
---------------------------------
  Mn     0.000000    0.000000   -0.022609
  S      0.000000    0.000000    2.022609

----------------------------
CARTESIAN COORDINATES (A.U.)
----------------------------
  NO LB      ZA    FRAG     MASS         X           Y           Z
   0 Mn   25.0000    0    54.940    0.000000    0.000000   -0.042724
   1 S    16.0000    0    32.060    0.000000    0.000000    3.822176

--------------------------------
INTERNAL COORDINATES (ANGSTROEM)
--------------------------------
 Mn     0   0   0     0.000000000000     0.00000000     0.00000000
 S      1   0   0     2.045217171086     0.00000000     0.00000000

---------------------------
INTERNAL COORDINATES (A.U.)
---------------------------
 Mn     0   0   0     0.000000000000     0.00000000     0.00000000
 S      1   0   0     3.864900337746     0.00000000     0.00000000

---------------------
BASIS SET INFORMATION
---------------------
There are 2 groups of distinct atoms

 Group   1 Type Mn  : 116s77p23d3f2g contracted to 8s7p5d3f2g pattern {19191919191911/151515151511/77711/111/11}
 Group   2 Type S   : 42s17p3d2f contracted to 6s5p3d2f pattern {131313111/77111/111/11}

Atom   0Mn   basis set group =>   1
Atom   1S    basis set group =>   2
---------------------------------
AUXILIARY/J BASIS SET INFORMATION
---------------------------------
There are 2 groups of distinct atoms

 Group   1 Type Mn  : 19s5p5d3f3g contracted to 8s5p5d2f3g pattern {121111111/11111/11111/21/111}
 Group   2 Type S   : 14s5p5d2f1g contracted to 8s4p3d1f1g pattern {71111111/2111/311/2/1}

Atom   0Mn   basis set group =>   1
Atom   1S    basis set group =>   2


           ************************************************************
           *        Program running with 24 parallel MPI-processes    *
           *              working on a common directory               *
           ************************************************************
------------------------------------------------------------------------------
                           ORCA GTO INTEGRAL CALCULATION
                           -- RI-GTO INTEGRALS CHOSEN --
------------------------------------------------------------------------------

                         BASIS SET STATISTICS AND STARTUP INFO

Gaussian basis set:
 # of primitive gaussian shells          ...  285
 # of primitive gaussian functions       ...  623
 # of contracted shells                  ...   41
 # of contracted basis functions         ...  143
 Highest angular momentum                ...    4
 Maximum contraction depth               ...   19
Auxiliary gaussian basis set:
 # of primitive gaussian shells          ...   62
 # of primitive gaussian functions       ...  184
 # of contracted shells                  ...   40
 # of contracted aux-basis functions     ...  140
 Highest angular momentum                ...    4
 Maximum contraction depth               ...   12
Ratio of auxiliary to basis functions    ...  0.98
Integral package used                  ... LIBINT
 One Electron integrals                  ... done
 Ordering auxiliary basis shells         ... done
 Integral threshhold             Thresh  ...  1.000e-10
 Primitive cut-off               TCut    ...  1.000e-11
 Pre-screening matrix                    ... done
 Shell pair data                         ... 
 Ordering of the shell pairs             ... done (   0.000 sec) 861 of 861 pairs
 Determination of significant pairs      ... done (   0.000 sec)
 Creation of shell pair data             ... done (   0.002 sec)
 Storage of shell pair data              ... done (   0.086 sec)
 Shell pair data done in (   0.088 sec)
 Computing two index integrals           ... done
 Cholesky decomposition of the V-matrix  ... done


Timings:
 Total evaluation time                   ...   3.169 sec (  0.053 min)
 One electron matrix time                ...   0.051 sec (  0.001 min) =  1.6%
 Schwartz matrix evaluation time         ...   2.996 sec (  0.050 min) = 94.5%
 Two index repulsion integral time       ...   0.001 sec (  0.000 min) =  0.0%
 Cholesky decomposition of V             ...   0.007 sec (  0.000 min) =  0.2%
 Three index repulsion integral time     ...   0.000 sec (  0.000 min) =  0.0%



           ************************************************************
           *        Program running with 24 parallel MPI-processes    *
           *              working on a common directory               *
           ************************************************************
-------------------------------------------------------------------------------
                                 ORCA SCF
-------------------------------------------------------------------------------

------------
SCF SETTINGS
------------
Hamiltonian:
 Density Functional     Method          .... DFT(GTOs)
 Exchange Functional    Exchange        .... TPSS
 Correlation Functional Correlation     .... TPSS
 LDA part of GGA corr.  LDAOpt          .... PW91-LDA
 Gradients option       PostSCFGGA      .... off
   Density functional embedding theory  .... OFF
   NL short-range parameter             ....  5.000000
 RI-approximation to the Coulomb term is turned on
   Number of auxiliary basis functions  .... 140


General Settings:
 Integral files         IntName         .... 30_MnS
 Hartree-Fock type      HFTyp           .... UHF
 Total Charge           Charge          ....    0
 Multiplicity           Mult            ....    6
 Number of Electrons    NEL             ....   41
 Basis Dimension        Dim             ....  143
 Nuclear Repulsion      ENuc            ....    103.4955535835 Eh

Convergence Acceleration:
 DIIS                   CNVDIIS         .... on
   Start iteration      DIISMaxIt       ....    12
   Startup error        DIISStart       ....  0.200000
   # of expansion vecs  DIISMaxEq       ....     5
   Bias factor          DIISBfac        ....   1.050
   Max. coefficient     DIISMaxC        ....  10.000
 Newton-Raphson         CNVNR           .... off
 SOSCF                  CNVSOSCF        .... off
 Level Shifting         CNVShift        .... on
   Level shift para.    LevelShift      ....    0.2500
   Turn off err/grad.   ShiftErr        ....    0.0010
 Zerner damping         CNVZerner       .... off
 Static damping         CNVDamp         .... on
   Fraction old density DampFac         ....    0.7000
   Max. Damping (<1)    DampMax         ....    0.9800
   Min. Damping (>=0)   DampMin         ....    0.0000
   Turn off err/grad.   DampErr         ....    0.1000
 Fernandez-Rico         CNVRico         .... off

SCF Procedure:
 Maximum # iterations   MaxIter         ....   125
 SCF integral mode      SCFMode         .... Direct
   Integral package                     .... LIBINT
 Reset frequency        DirectResetFreq ....    20
 Integral Threshold     Thresh          ....  1.000e-10 Eh
 Primitive CutOff       TCut            ....  1.000e-11 Eh

Convergence Tolerance:
 Convergence Check Mode ConvCheckMode   .... Total+1el-Energy
 Convergence forced     ConvForced      .... 0
 Energy Change          TolE            ....  1.000e-06 Eh
 1-El. energy change                    ....  1.000e-03 Eh
 DIIS Error             TolErr          ....  1.000e-06


Diagonalization of the overlap matrix:
Smallest eigenvalue                        ... 6.120e-05
Time for diagonalization                   ...    0.005 sec
Threshold for overlap eigenvalues          ... 1.000e-08
Number of eigenvalues below threshold      ... 0
Time for construction of square roots      ...    0.003 sec
Total time needed                          ...    0.008 sec

-------------------
DFT GRID GENERATION
-------------------

General Integration Accuracy     IntAcc      ...  4.670
Radial Grid Type                 RadialGrid  ... Gauss-Chebyshev
Angular Grid (max. acc.)         AngularGrid ... Lebedev-302
Angular grid pruning method      GridPruning ... 3 (G Style)
Weight generation scheme         WeightScheme... Becke
Basis function cutoff            BFCut       ...    1.0000e-10
Integration weight cutoff        WCut        ...    1.0000e-14
Grids for H and He will be reduced by one unit

# of grid points (after initial pruning)     ...  16510 (   0.0 sec)
# of grid points (after weights+screening)   ...  16481 (   0.0 sec)
nearest neighbour list constructed           ...    0.0 sec
Grid point re-assignment to atoms done       ...    0.0 sec
Grid point division into batches done        ...    0.1 sec
Reduced shell lists constructed in    0.1 sec

Total number of grid points                  ...    16481
Total number of batches                      ...      259
Average number of points per batch           ...       63
Average number of grid points per atom       ...     8240
Average number of shells per batch           ...    15.83 (38.62%)
Average number of basis functions per batch  ...    39.83 (27.86%)
Average number of large shells per batch     ...     8.67 (54.74%)
Average number of large basis fcns per batch ...    21.50 (53.97%)
Maximum spatial batch extension              ...  24.49, 24.19, 17.58 au
Average spatial batch extension              ...   0.84,  0.83,  0.64 au

Time for grid setup =    0.177 sec

------------------------------
INITIAL GUESS: MODEL POTENTIAL
------------------------------
Loading Hartree-Fock densities                     ... done
Calculating cut-offs                               ... done
Setting up the integral package                    ... done
Initializing the effective Hamiltonian             ... done
Starting the Coulomb interaction                   ... done (   0.0 sec)
Reading the grid                                   ... done
Mapping shells                                     ... done
Starting the XC term evaluation                    ... done (   0.0 sec)
  promolecular density results
     # of electrons  =     40.999994885
     EX              =    -75.480000248
     EC              =     -1.693816944
     EX+EC           =    -77.173817192
Transforming the Hamiltonian                       ... done (   0.0 sec)
Diagonalizing the Hamiltonian                      ... done (   0.0 sec)
Back transforming the eigenvectors                 ... done (   0.0 sec)
Now organizing SCF variables                       ... done
                      ------------------
                      INITIAL GUESS DONE (   0.3 sec)
                      ------------------
--------------
SCF ITERATIONS
--------------
ITER       Energy         Delta-E        Max-DP      RMS-DP      [F,P]     Damp
               ***  Starting incremental Fock matrix formation  ***
  0  -1549.2049754699   0.000000000000 0.08272478  0.00130217  0.1287224 0.7000
  1  -1549.2532462521  -0.048270782192 0.03797343  0.00099562  0.0558720 0.7000
                               ***Turning on DIIS***
  2  -1549.2661277872  -0.012881535167 0.08503083  0.00170306  0.0540036 0.0000
  3  -1549.2764077586  -0.010279971413 0.02134563  0.00044175  0.1253814 0.7000
  4  -1549.2837034934  -0.007295734786 0.01424086  0.00032151  0.1066325 0.7000
  5  -1549.2896928262  -0.005989332766 0.02826188  0.00070109  0.0889796 0.0000
  6  -1549.3035189965  -0.013826170273 0.00882132  0.00018808  0.0506747 0.0000
  7  -1549.3067054139  -0.003186417466 0.01889674  0.00035945  0.0344900 0.0000
  8  -1549.3097092256  -0.003003811704 0.00521554  0.00011187  0.0054086 0.0000
  9  -1549.3098525807  -0.000143355053 0.00248151  0.00004961  0.0043134 0.0000
 10  -1549.3099191366  -0.000066555960 0.00194178  0.00003072  0.0024078 0.0000
 11  -1549.3099469920  -0.000027855393 0.00330800  0.00004785  0.0007560 0.0000
 12  -1549.3099612991  -0.000014307105 0.00031035  0.00000742  0.0012028 0.0000
 13  -1549.3099640908  -0.000002791639 0.00064313  0.00000831  0.0007556 0.0000
 14  -1549.3099662779  -0.000002187140 0.00047300  0.00000792  0.0000955 0.0000
 15  -1549.3099668188  -0.000000540850 0.00037837  0.00000497  0.0001746 0.0000
 16  -1549.3099669548  -0.000000136075 0.00010987  0.00000214  0.0000835 0.0000
 17  -1549.3099670660  -0.000000111204 0.00009394  0.00000145  0.0000364 0.0000
                 **** Energy Check signals convergence ****

               *****************************************************
               *                     SUCCESS                       *
               *           SCF CONVERGED AFTER  18 CYCLES          *
               *****************************************************


----------------
TOTAL SCF ENERGY
----------------

Total Energy       :        -1549.30996704 Eh          -42158.86752 eV

Components:
Nuclear Repulsion  :          103.49555358 Eh            2816.25719 eV
Electronic Energy  :        -1652.80552062 Eh          -44975.12471 eV
One Electron Energy:        -2343.43742798 Eh          -63768.17433 eV
Two Electron Energy:          690.63190736 Eh           18793.04962 eV

Virial components:
Potential Energy   :        -3095.74345139 Eh          -84239.46196 eV
Kinetic Energy     :         1546.43348436 Eh           42080.59445 eV
Virial Ratio       :            2.00186008


DFT components:
N(Alpha)           :       23.000002684184 electrons
N(Beta)            :       18.000002548561 electrons
N(Total)           :       41.000005232745 electrons
E(X)               :      -76.175283010079 Eh       
E(C)               :       -1.691247281626 Eh       
E(XC)              :      -77.866530291705 Eh       
DFET-embed. en.    :        0.000000000000 Eh       

---------------
SCF CONVERGENCE
---------------

  Last Energy change         ...    2.6813e-08  Tolerance :   1.0000e-06
  Last MAX-Density change    ...    1.1085e-05  Tolerance :   1.0000e-05
  Last RMS-Density change    ...    1.6225e-07  Tolerance :   1.0000e-06
  Last DIIS Error            ...    7.3844e-06  Tolerance :   1.0000e-06

             **** THE GBW FILE WAS UPDATED (30_MnS.gbw) ****
             **** DENSITY FILE WAS UPDATED (30_MnS.scfp) ****
             **** ENERGY FILE WAS UPDATED (30_MnS.en.tmp) ****
----------------------
UHF SPIN CONTAMINATION
----------------------

Warning: in a DFT calculation there is little theoretical justification to 
         calculate <S**2> as in Hartree-Fock theory. We will do it anyways
         but you should keep in mind that the values have only limited relevance

Expectation value of <S**2>     :     8.813326
Ideal value S*(S+1) for S=2.5   :     8.750000
Deviation                       :     0.063326

             **** THE GBW FILE WAS UPDATED (30_MnS.gbw) ****
             **** DENSITY FILE WAS UPDATED (30_MnS.scfp) ****
----------------
ORBITAL ENERGIES
----------------
                 SPIN UP ORBITALS
  NO   OCC          E(Eh)            E(eV) 
   0   1.0000    -234.692869     -6386.3176 
   1   1.0000     -88.339921     -2403.8515 
   2   1.0000     -26.982624      -734.2345 
   3   1.0000     -23.071927      -627.8191 
   4   1.0000     -23.071927      -627.8191 
   5   1.0000     -23.064595      -627.6195 
   6   1.0000      -7.697012      -209.4463 
   7   1.0000      -5.674600      -154.4137 
   8   1.0000      -5.674347      -154.4068 
   9   1.0000      -5.674347      -154.4068 
  10   1.0000      -3.137359       -85.3719 
  11   1.0000      -2.025586       -55.1190 
  12   1.0000      -2.025586       -55.1190 
  13   1.0000      -2.014271       -54.8111 
  14   1.0000      -0.583170       -15.8689 
  15   1.0000      -0.295017        -8.0278 
  16   1.0000      -0.287494        -7.8231 
  17   1.0000      -0.287494        -7.8231 
  18   1.0000      -0.276555        -7.5254 
  19   1.0000      -0.276554        -7.5254 
  20   1.0000      -0.226739        -6.1699 
  21   1.0000      -0.188689        -5.1345 
  22   1.0000      -0.188689        -5.1345 
  23   0.0000      -0.134257        -3.6533 
  24   0.0000      -0.041604        -1.1321 
  25   0.0000      -0.041604        -1.1321 
  26   0.0000      -0.001755        -0.0477 
  27   0.0000       0.003334         0.0907 
  28   0.0000       0.022105         0.6015 
  29   0.0000       0.022105         0.6015 
  30   0.0000       0.042464         1.1555 
  31   0.0000       0.042465         1.1555 
  32   0.0000       0.046921         1.2768 
  33   0.0000       0.054726         1.4892 
  34   0.0000       0.054726         1.4892 
  35   0.0000       0.064031         1.7424 
  36   0.0000       0.084325         2.2946 
  37   0.0000       0.099161         2.6983 
  38   0.0000       0.099161         2.6983 
  39   0.0000       0.107173         2.9163 
  40   0.0000       0.146313         3.9814 
  41   0.0000       0.146313         3.9814 
  42   0.0000       0.185327         5.0430 
  43   0.0000       0.185328         5.0430 
  44   0.0000       0.188104         5.1186 
  45   0.0000       0.218526         5.9464 
  46   0.0000       0.220178         5.9913 
  47   0.0000       0.220178         5.9913 
  48   0.0000       0.227977         6.2036 
  49   0.0000       0.227978         6.2036 
  50   0.0000       0.281857         7.6697 
  51   0.0000       0.301726         8.2104 
  52   0.0000       0.301726         8.2104 
  53   0.0000       0.383747        10.4423 
  54   0.0000       0.431969        11.7545 
  55   0.0000       0.501727        13.6527 
  56   0.0000       0.501727        13.6527 
  57   0.0000       0.571327        15.5466 
  58   0.0000       0.571334        15.5468 
  59   0.0000       0.579361        15.7652 
  60   0.0000       0.583405        15.8753 
  61   0.0000       0.583405        15.8753 
  62   0.0000       0.592853        16.1323 
  63   0.0000       0.592853        16.1323 
  64   0.0000       0.652768        17.7627 
  65   0.0000       0.652771        17.7628 
  66   0.0000       0.662432        18.0257 
  67   0.0000       0.662432        18.0257 
  68   0.0000       0.704994        19.1838 
  69   0.0000       0.755857        20.5679 
  70   0.0000       0.757875        20.6228 
  71   0.0000       0.757875        20.6228 
  72   0.0000       0.769665        20.9436 
  73   0.0000       0.769665        20.9436 
  74   0.0000       0.832296        22.6479 
  75   0.0000       0.832298        22.6480 
  76   0.0000       0.877615        23.8811 
  77   0.0000       0.906732        24.6734 
  78   0.0000       0.906732        24.6734 
  79   0.0000       0.959528        26.1101 
  80   0.0000       0.987931        26.8830 
  81   0.0000       0.987933        26.8830 
  82   0.0000       1.242339        33.8058 
  83   0.0000       1.335054        36.3287 
  84   0.0000       1.335054        36.3287 
  85   0.0000       1.731576        47.1186 
  86   0.0000       1.773424        48.2573 
  87   0.0000       1.773553        48.2608 
  88   0.0000       1.894288        51.5462 
  89   0.0000       1.894288        51.5462 
  90   0.0000       1.978637        53.8415 
  91   0.0000       1.978637        53.8415 
  92   0.0000       2.021976        55.0208 
  93   0.0000       2.035567        55.3906 
  94   0.0000       2.035574        55.3908 
  95   0.0000       2.072660        56.3999 
  96   0.0000       2.072660        56.3999 
  97   0.0000       2.085855        56.7590 
  98   0.0000       2.118340        57.6430 
  99   0.0000       2.118340        57.6430 
 100   0.0000       2.126371        57.8615 
 101   0.0000       2.126371        57.8615 
 102   0.0000       2.221177        60.4413 
 103   0.0000       2.221188        60.4416 
 104   0.0000       2.267110        61.6912 
 105   0.0000       2.398420        65.2643 
 106   0.0000       2.398420        65.2643 
 107   0.0000       2.479987        67.4839 
 108   0.0000       2.571805        69.9824 
 109   0.0000       2.571854        69.9837 
 110   0.0000       2.581497        70.2461 
 111   0.0000       2.581498        70.2461 
 112   0.0000       2.587335        70.4050 
 113   0.0000       2.587335        70.4050 
 114   0.0000       2.727988        74.2323 
 115   0.0000       2.727992        74.2324 
 116   0.0000       2.790480        75.9328 
 117   0.0000       3.010281        81.9139 
 118   0.0000       3.107647        84.5634 
 119   0.0000       3.107647        84.5634 
 120   0.0000       3.524290        95.9008 
 121   0.0000       3.732923       101.5780 
 122   0.0000       3.732946       101.5786 
 123   0.0000       4.122141       112.1692 
 124   0.0000       4.122141       112.1692 
 125   0.0000       5.075109       138.1007 
 126   0.0000       5.261967       143.1854 
 127   0.0000       7.268018       197.7728 
 128   0.0000       7.268018       197.7728 
 129   0.0000       7.302417       198.7089 
 130   0.0000       7.302440       198.7095 
 131   0.0000       7.361391       200.3136 
 132   0.0000       7.361391       200.3136 
 133   0.0000       7.599084       206.7816 
 134   0.0000       7.836776       213.2495 
 135   0.0000       7.837115       213.2587 
 136   0.0000       7.851457       213.6490 
 137   0.0000       7.851457       213.6490 
 138   0.0000       7.908636       215.2049 
 139   0.0000       7.908706       215.2068 
 140   0.0000       8.070059       219.5975 
 141   0.0000       8.070059       219.5975 
 142   0.0000       8.202749       223.2081 

                 SPIN DOWN ORBITALS
  NO   OCC          E(Eh)            E(eV) 
   0   1.0000    -234.691673     -6386.2851 
   1   1.0000     -88.339256     -2403.8334 
   2   1.0000     -26.921236      -732.5641 
   3   1.0000     -23.019958      -626.4049 
   4   1.0000     -23.019934      -626.4042 
   5   1.0000     -23.019934      -626.4042 
   6   1.0000      -7.696388      -209.4294 
   7   1.0000      -5.676694      -154.4707 
   8   1.0000      -5.671975      -154.3423 
   9   1.0000      -5.671975      -154.3423 
  10   1.0000      -2.974049       -80.9280 
  11   1.0000      -1.862670       -50.6858 
  12   1.0000      -1.855935       -50.5026 
  13   1.0000      -1.855935       -50.5026 
  14   1.0000      -0.576929       -15.6990 
  15   1.0000      -0.255133        -6.9425 
  16   1.0000      -0.214400        -5.8341 
  17   1.0000      -0.214400        -5.8341 
  18   0.0000      -0.130293        -3.5454 
  19   0.0000      -0.118041        -3.2120 
  20   0.0000      -0.118040        -3.2120 
  21   0.0000      -0.107442        -2.9236 
  22   0.0000      -0.107442        -2.9236 
  23   0.0000      -0.085648        -2.3306 
  24   0.0000      -0.006090        -0.1657 
  25   0.0000      -0.006090        -0.1657 
  26   0.0000       0.011252         0.3062 
  27   0.0000       0.013184         0.3588 
  28   0.0000       0.034948         0.9510 
  29   0.0000       0.034948         0.9510 
  30   0.0000       0.058873         1.6020 
  31   0.0000       0.059457         1.6179 
  32   0.0000       0.059459         1.6180 
  33   0.0000       0.068870         1.8740 
  34   0.0000       0.068870         1.8740 
  35   0.0000       0.072271         1.9666 
  36   0.0000       0.104973         2.8564 
  37   0.0000       0.106166         2.8889 
  38   0.0000       0.106166         2.8889 
  39   0.0000       0.119291         3.2461 
  40   0.0000       0.175349         4.7715 
  41   0.0000       0.175349         4.7715 
  42   0.0000       0.202779         5.5179 
  43   0.0000       0.202779         5.5179 
  44   0.0000       0.212183         5.7738 
  45   0.0000       0.229009         6.2317 
  46   0.0000       0.246227         6.7002 
  47   0.0000       0.246227         6.7002 
  48   0.0000       0.256189         6.9712 
  49   0.0000       0.256193         6.9714 
  50   0.0000       0.294712         8.0195 
  51   0.0000       0.313109         8.5201 
  52   0.0000       0.313109         8.5201 
  53   0.0000       0.402317        10.9476 
  54   0.0000       0.471220        12.8225 
  55   0.0000       0.513064        13.9612 
  56   0.0000       0.513064        13.9612 
  57   0.0000       0.583862        15.8877 
  58   0.0000       0.583867        15.8878 
  59   0.0000       0.592403        16.1201 
  60   0.0000       0.592403        16.1201 
  61   0.0000       0.597755        16.2657 
  62   0.0000       0.630957        17.1692 
  63   0.0000       0.630957        17.1692 
  64   0.0000       0.677496        18.4356 
  65   0.0000       0.677497        18.4356 
  66   0.0000       0.710203        19.3256 
  67   0.0000       0.719669        19.5832 
  68   0.0000       0.719669        19.5832 
  69   0.0000       0.780617        21.2417 
  70   0.0000       0.780617        21.2417 
  71   0.0000       0.800064        21.7708 
  72   0.0000       0.825084        22.4517 
  73   0.0000       0.825084        22.4517 
  74   0.0000       0.894013        24.3273 
  75   0.0000       0.894016        24.3274 
  76   0.0000       0.905306        24.6346 
  77   0.0000       0.927603        25.2414 
  78   0.0000       0.927603        25.2414 
  79   0.0000       0.974591        26.5200 
  80   0.0000       1.040822        28.3222 
  81   0.0000       1.040822        28.3222 
  82   0.0000       1.275279        34.7021 
  83   0.0000       1.379272        37.5319 
  84   0.0000       1.379272        37.5319 
  85   0.0000       1.765530        48.0425 
  86   0.0000       1.785817        48.5946 
  87   0.0000       1.785948        48.5981 
  88   0.0000       1.903664        51.8013 
  89   0.0000       1.903664        51.8013 
  90   0.0000       2.012504        54.7630 
  91   0.0000       2.012504        54.7630 
  92   0.0000       2.036721        55.4220 
  93   0.0000       2.067836        56.2687 
  94   0.0000       2.067856        56.2692 
  95   0.0000       2.101018        57.1716 
  96   0.0000       2.114928        57.5501 
  97   0.0000       2.114928        57.5501 
  98   0.0000       2.133835        58.0646 
  99   0.0000       2.133835        58.0646 
 100   0.0000       2.216326        60.3093 
 101   0.0000       2.216326        60.3093 
 102   0.0000       2.296930        62.5026 
 103   0.0000       2.296946        62.5031 
 104   0.0000       2.328179        63.3530 
 105   0.0000       2.466663        67.1213 
 106   0.0000       2.466663        67.1213 
 107   0.0000       2.596294        70.6488 
 108   0.0000       2.665450        72.5306 
 109   0.0000       2.665474        72.5312 
 110   0.0000       2.671274        72.6891 
 111   0.0000       2.671274        72.6891 
 112   0.0000       2.698091        73.4188 
 113   0.0000       2.698091        73.4188 
 114   0.0000       2.796669        76.1012 
 115   0.0000       2.796689        76.1018 
 116   0.0000       2.865470        77.9734 
 117   0.0000       3.069316        83.5203 
 118   0.0000       3.169052        86.2343 
 119   0.0000       3.169052        86.2343 
 120   0.0000       3.597718        97.8989 
 121   0.0000       3.871398       105.3461 
 122   0.0000       3.871420       105.3467 
 123   0.0000       4.239133       115.3527 
 124   0.0000       4.239133       115.3527 
 125   0.0000       5.175247       140.8256 
 126   0.0000       5.272573       143.4740 
 127   0.0000       7.465716       203.1525 
 128   0.0000       7.465716       203.1525 
 129   0.0000       7.493022       203.8955 
 130   0.0000       7.493023       203.8955 
 131   0.0000       7.546932       205.3625 
 132   0.0000       7.546932       205.3625 
 133   0.0000       7.772272       211.4943 
 134   0.0000       7.977675       217.0836 
 135   0.0000       7.977948       217.0910 
 136   0.0000       7.985189       217.2880 
 137   0.0000       7.985189       217.2880 
 138   0.0000       8.037976       218.7244 
 139   0.0000       8.038059       218.7267 
 140   0.0000       8.196213       223.0303 
 141   0.0000       8.196213       223.0303 
 142   0.0000       8.330449       226.6830 

                    ********************************
                    * MULLIKEN POPULATION ANALYSIS *
                    ********************************

--------------------------------------------
MULLIKEN ATOMIC CHARGES AND SPIN POPULATIONS
--------------------------------------------
   0 Mn:    0.319830    4.751983
   1 S :   -0.319830    0.248017
Sum of atomic charges         :   -0.0000000
Sum of atomic spin populations:    5.0000000

-----------------------------------------------------
MULLIKEN REDUCED ORBITAL CHARGES AND SPIN POPULATIONS
-----------------------------------------------------
CHARGE
  0 Mns       :     6.771823  s :     6.771823
      pz      :     4.078319  p :    12.327818
      px      :     4.124749
      py      :     4.124749
      dz2     :     1.076632  d :     5.557623
      dxz     :     1.241611
      dyz     :     1.241611
      dx2y2   :     0.998885
      dxy     :     0.998885
      f0      :     0.004415  f :     0.021329
      f+1     :     0.008375
      f-1     :     0.008375
      f+2     :     0.000082
      f-2     :     0.000082
      f+3     :     0.000000
      f-3     :     0.000000
      g0      :     0.000380  g :     0.001577
      g+1     :     0.000598
      g-1     :     0.000598
      g+2     :     0.000001
      g-2     :     0.000001
      g+3     :     0.000000
      g-3     :     0.000000
      g+4     :     0.000000
      g-4     :     0.000000
  1 S s       :     5.909365  s :     5.909365
      pz      :     3.159768  p :    10.376990
      px      :     3.608611
      py      :     3.608611
      dz2     :    -0.000437  d :     0.030926
      dxz     :     0.015032
      dyz     :     0.015032
      dx2y2   :     0.000649
      dxy     :     0.000649
      f0      :    -0.000265  f :     0.002549
      f+1     :     0.001023
      f-1     :     0.001023
      f+2     :     0.000384
      f-2     :     0.000384
      f+3     :     0.000000
      f-3     :     0.000000

SPIN
  0 Mns       :     0.447790  s :     0.447790
      pz      :    -0.004982  p :     0.129564
      px      :     0.067273
      py      :     0.067273
      dz2     :     0.714835  d :     4.176716
      dxz     :     0.732056
      dyz     :     0.732056
      dx2y2   :     0.998885
      dxy     :     0.998885
      f0      :    -0.000747  f :    -0.001518
      f+1     :    -0.000468
      f-1     :    -0.000468
      f+2     :     0.000082
      f-2     :     0.000082
      f+3     :    -0.000000
      f-3     :    -0.000000
      g0      :    -0.000125  g :    -0.000569
      g+1     :    -0.000223
      g-1     :    -0.000223
      g+2     :     0.000001
      g-2     :     0.000001
      g+3     :     0.000000
      g-3     :     0.000000
      g+4     :     0.000000
      g-4     :     0.000000
  1 S s       :     0.000992  s :     0.000992
      pz      :    -0.158134  p :     0.250770
      px      :     0.204452
      py      :     0.204452
      dz2     :     0.000189  d :    -0.002000
      dxz     :    -0.001744
      dyz     :    -0.001744
      dx2y2   :     0.000649
      dxy     :     0.000649
      f0      :     0.000181  f :    -0.001745
      f+1     :    -0.001346
      f-1     :    -0.001346
      f+2     :     0.000384
      f-2     :     0.000384
      f+3     :     0.000000
      f-3     :     0.000000


                     *******************************
                     * LOEWDIN POPULATION ANALYSIS *
                     *******************************

-------------------------------------------
LOEWDIN ATOMIC CHARGES AND SPIN POPULATIONS
-------------------------------------------
   0 Mn:    0.135508    4.665586
   1 S :   -0.135508    0.334414

----------------------------------------------------
LOEWDIN REDUCED ORBITAL CHARGES AND SPIN POPULATIONS
----------------------------------------------------
CHARGE
  0 Mns       :     6.432637  s :     6.432637
      pz      :     4.210836  p :    12.506003
      px      :     4.147584
      py      :     4.147584
      dz2     :     1.204164  d :     5.743305
      dxz     :     1.280638
      dyz     :     1.280638
      dx2y2   :     0.988933
      dxy     :     0.988933
      f0      :     0.060402  f :     0.173057
      f+1     :     0.055816
      f-1     :     0.055816
      f+2     :     0.000511
      f-2     :     0.000511
      f+3     :     0.000000
      f-3     :     0.000000
      g0      :     0.003413  g :     0.009490
      g+1     :     0.003025
      g-1     :     0.003025
      g+2     :     0.000014
      g-2     :     0.000014
      g+3     :     0.000000
      g-3     :     0.000000
      g+4     :     0.000000
      g-4     :     0.000000
  1 S s       :     5.465505  s :     5.465505
      pz      :     3.386353  p :    10.223504
      px      :     3.418576
      py      :     3.418575
      dz2     :     0.144474  d :     0.253656
      dxz     :     0.051122
      dyz     :     0.051122
      dx2y2   :     0.003469
      dxy     :     0.003469
      f0      :     0.092215  f :     0.192842
      f+1     :     0.043240
      f-1     :     0.043240
      f+2     :     0.007073
      f-2     :     0.007073
      f+3     :     0.000000
      f-3     :     0.000000

SPIN
  0 Mns       :     0.369993  s :     0.369993
      pz      :    -0.004845  p :     0.204471
      px      :     0.104658
      py      :     0.104658
      dz2     :     0.684459  d :     4.069865
      dxz     :     0.703770
      dyz     :     0.703770
      dx2y2   :     0.988933
      dxy     :     0.988933
      f0      :    -0.000939  f :     0.020905
      f+1     :     0.010411
      f-1     :     0.010411
      f+2     :     0.000511
      f-2     :     0.000511
      f+3     :    -0.000000
      f-3     :    -0.000000
      g0      :    -0.000359  g :     0.000352
      g+1     :     0.000342
      g-1     :     0.000342
      g+2     :     0.000014
      g-2     :     0.000014
      g+3     :     0.000000
      g-3     :     0.000000
      g+4     :     0.000000
      g-4     :     0.000000
  1 S s       :     0.015672  s :     0.015672
      pz      :    -0.079994  p :     0.228653
      px      :     0.154324
      py      :     0.154324
      dz2     :     0.013595  d :     0.051166
      dxz     :     0.015316
      dyz     :     0.015316
      dx2y2   :     0.003469
      dxy     :     0.003469
      f0      :     0.002420  f :     0.038923
      f+1     :     0.011179
      f-1     :     0.011179
      f+2     :     0.007073
      f-2     :     0.007073
      f+3     :     0.000000
      f-3     :     0.000000


                      *****************************
                      * MAYER POPULATION ANALYSIS *
                      *****************************

  NA   - Mulliken gross atomic population
  ZA   - Total nuclear charge
  QA   - Mulliken gross atomic charge
  VA   - Mayer's total valence
  BVA  - Mayer's bonded valence
  FA   - Mayer's free valence

  ATOM       NA         ZA         QA         VA         BVA        FA
  0 Mn    24.6802    25.0000     0.3198     6.3728     2.2284     4.1444
  1 S     16.3198    16.0000    -0.3198     2.3561     2.2284     0.1276

  Mayer bond orders larger than 0.100000
B(  0-Mn,  1-S ) :   2.2284 

-------
TIMINGS
-------

Total SCF time: 0 days 0 hours 0 min 4 sec 

Total time                  ....       4.440 sec
Sum of individual times     ....       4.282 sec  ( 96.4%)

Fock matrix formation       ....       3.830 sec  ( 86.3%)
  Split-RI-J                ....       2.631 sec  ( 68.7% of F)
  XC integration            ....       1.082 sec  ( 28.2% of F)
    Basis function eval.    ....       0.129 sec  ( 12.0% of XC)
    Density eval.           ....       0.122 sec  ( 11.3% of XC)
    XC-Functional eval.     ....       0.031 sec  (  2.9% of XC)
    XC-Potential eval.      ....       0.344 sec  ( 31.8% of XC)
Diagonalization             ....       0.097 sec  (  2.2%)
Density matrix formation    ....       0.012 sec  (  0.3%)
Population analysis         ....       0.007 sec  (  0.2%)
Initial guess               ....       0.120 sec  (  2.7%)
Orbital Transformation      ....       0.000 sec  (  0.0%)
Orbital Orthonormalization  ....       0.000 sec  (  0.0%)
DIIS solution               ....       0.038 sec  (  0.9%)
Grid generation             ....       0.177 sec  (  4.0%)


-------------------------------------------------------------------------------
                          DFT DISPERSION CORRECTION                            
                                                                               
                              DFTD3 V3.1  Rev 1                                
                          USING Becke-Johnson damping                          
-------------------------------------------------------------------------------
The TPSS functional is recognized
Active option DFTDOPT                   ...         4   

molecular C6(AA) [au] = 774.669145 


            DFT-D V3
 parameters
 s6 scaling factor         :     1.0000 
 a1 scaling factor         :     0.4535 
 s8 scaling factor         :     1.9435 
 a2 scaling factor         :     4.4752 
 ad hoc parameters k1-k3   :    16.0000     1.3333    -4.0000 

 Edisp/kcal,au: -1.074464353198  -0.001712267755 
 E6   /kcal   :  -0.356812117 
 E8   /kcal   :  -0.717652236 
 % E8         :  66.791628182 

-------------------------   ----------------
Dispersion correction           -0.001712268
-------------------------   ----------------


-------------------------   --------------------
FINAL SINGLE POINT ENERGY     -1549.311679306992
-------------------------   --------------------


                            ***************************************
                            *     ORCA property calculations      *
                            ***************************************

                                    ---------------------
                                    Active property flags
                                    ---------------------
   (+) Dipole Moment


------------------------------------------------------------------------------
                       ORCA ELECTRIC PROPERTIES CALCULATION
------------------------------------------------------------------------------

Dipole Moment Calculation                       ... on
Quadrupole Moment Calculation                   ... off
Polarizability Calculation                      ... off
GBWName                                         ... 30_MnS.gbw
Electron density file                           ... 30_MnS.scfp
The origin for moment calculation is the CENTER OF MASS  = ( 0.000000,  0.000000  1.381514)

-------------
DIPOLE MOMENT
-------------
                                X             Y             Z
Electronic contribution:      0.00000       0.00000      -5.54838
Nuclear contribution   :      0.00000       0.00000       3.44465
                        -----------------------------------------
Total Dipole Moment    :      0.00000       0.00000      -2.10373
                        -----------------------------------------
Magnitude (a.u.)       :      2.10373
Magnitude (Debye)      :      5.34725



--------------------
Rotational spectrum 
--------------------
 
Rotational constants in cm-1:     0.000000     0.199061     0.199061 
Rotational constants in MHz :     0.000000  5967.684062  5967.684062 

 Dipole components along the rotational axes: 
x,y,z [a.u.] :    -2.103728     0.000000     0.000000 
x,y,z [Debye]:    -5.347251     0.000000     0.000000 

 

Timings for individual modules:

Sum of individual times         ...        8.449 sec (=   0.141 min)
GTO integral calculation        ...        3.647 sec (=   0.061 min)  43.2 %
SCF iterations                  ...        4.802 sec (=   0.080 min)  56.8 %
                             ****ORCA TERMINATED NORMALLY****
TOTAL RUN TIME: 0 days 0 hours 0 minutes 9 seconds 36 msec
