
                                 *****************
                                 * O   R   C   A *
                                 *****************

           --- An Ab Initio, DFT and Semiempirical electronic structure package ---

                  #######################################################
                  #                        -***-                        #
                  #          Department of theory and spectroscopy      #
                  #               Directorship: Frank Neese             #
                  #        Max Planck Institute fuer Kohlenforschung    #
                  #                Kaiser Wilhelm Platz 1               #
                  #                 D-45470 Muelheim/Ruhr               #
                  #                      Germany                        #
                  #                                                     #
                  #                  All rights reserved                #
                  #                        -***-                        #
                  #######################################################


                         Program Version 4.2.0 -  RELEASE  -


 With contributions from (in alphabetic order):
   Daniel Aravena         : Magnetic Suceptibility
   Michael Atanasov       : Ab Initio Ligand Field Theory (pilot matlab implementation)
   Alexander A. Auer      : GIAO ZORA, VPT2
   Ute Becker             : Parallelization
   Giovanni Bistoni       : ED, misc. LED, open-shell LED, HFLED
   Martin Brehm           : Molecular dynamics
   Dmytro Bykov           : SCF Hessian
   Vijay G. Chilkuri      : MRCI spin determinant printing, contributions to CSF-ICE
   Dipayan Datta          : RHF DLPNO-CCSD density
   Achintya Kumar Dutta   : EOM-CC, STEOM-CC
   Dmitry Ganyushin       : Spin-Orbit,Spin-Spin,Magnetic field MRCI
   Miquel Garcia          : C-PCM Hessian, Gaussian charge scheme
   Yang Guo               : DLPNO-NEVPT2, CIM, IAO-localization
   Andreas Hansen         : Spin unrestricted coupled pair/coupled cluster methods
   Benjamin Helmich-Paris : CASSCF linear response (MC-RPA)
   Lee Huntington         : MR-EOM, pCC
   Robert Izsak           : Overlap fitted RIJCOSX, COSX-SCS-MP3, EOM
   Christian Kollmar      : KDIIS, OOCD, Brueckner-CCSD(T), CCSD density
   Simone Kossmann        : Meta GGA functionals, TD-DFT gradient, OOMP2, MP2 Hessian
   Martin Krupicka        : AUTO-CI
   Lucas Lang             : DCDCAS
   Dagmar Lenk            : GEPOL surface, SMD
   Dimitrios Liakos       : Extrapolation schemes; Compound Job, initial MDCI parallelization
   Dimitrios Manganas     : Further ROCIS development; embedding schemes
   Dimitrios Pantazis     : SARC Basis sets
   Taras Petrenko         : DFT Hessian,TD-DFT gradient, ASA, ECA, R-Raman, ABS, FL, XAS/XES, NRVS
   Peter Pinski           : DLPNO-MP2, DLPNO-MP2 Gradient
   Christoph Reimann      : Effective Core Potentials
   Marius Retegan         : Local ZFS, SOC
   Christoph Riplinger    : Optimizer, TS searches, QM/MM, DLPNO-CCSD(T), (RO)-DLPNO pert. Triples
   Tobias Risthaus        : Range-separated hybrids, TD-DFT gradient, RPA, STAB
   Michael Roemelt        : Original ROCIS implementation
   Masaaki Saitow         : Open-shell DLPNO-CCSD energy and density
   Barbara Sandhoefer     : DKH picture change effects
   Avijit Sen             : IP-ROCIS
   Kantharuban Sivalingam : CASSCF convergence, NEVPT2, FIC-MRCI
   Bernardo de Souza      : ESD, SOC TD-DFT
   Georgi Stoychev        : AutoAux, RI-MP2 NMR
   Willem Van den Heuvel  : Paramagnetic NMR
   Boris Wezisla          : Elementary symmetry handling
   Frank Wennmohs         : Technical directorship


 We gratefully acknowledge several colleagues who have allowed us to
 interface, adapt or use parts of their codes:
   Stefan Grimme, W. Hujo, H. Kruse,             : VdW corrections, initial TS optimization,
                  C. Bannwarth                     DFT functionals, gCP, sTDA/sTD-DF
   Ed Valeev, F. Pavosevic, A. Kumar             : LibInt (2-el integral package), F12 methods
   Garnet Chan, S. Sharma, J. Yang, R. Olivares  : DMRG
   Ulf Ekstrom                                   : XCFun DFT Library
   Mihaly Kallay                                 : mrcc  (arbitrary order and MRCC methods)
   Andreas Klamt, Michael Diedenhofen            : otool_cosmo (COSMO solvation model)
   Jiri Pittner, Ondrej Demel                    : Mk-CCSD
   Frank Weinhold                                : gennbo (NPA and NBO analysis)
   Christopher J. Cramer and Donald G. Truhlar   : smd solvation model
   Lars Goerigk                                  : TD-DFT with DH, B97 family of functionals
   V. Asgeirsson, H. Jonsson                     : NEB implementation
   FAccTs GmbH                                   : IRC, NEB, NEB-TS, Multilevel, MM, QM/MM, CI optimization
   S Lehtola, MJT Oliveira, MAL Marques          : LibXC Library


 Your calculation uses the libint2 library for the computation of 2-el integrals
 For citations please refer to: http://libint.valeyev.net

 Your ORCA version has been built with support for libXC version: 4.2.3
 For citations please refer to: https://tddft.org/programs/libxc/

 This ORCA versions uses:
   CBLAS   interface :  Fast vector & matrix operations
   LAPACKE interface :  Fast linear algebra routines
   SCALAPACK package :  Parallel linear algebra routines


Your calculation utilizes the atom-pairwise dispersion correction
with the Becke-Johnson damping scheme (D3BJ)
Cite in your paper:
S.Grimme, S.Ehrlich, L.Goerigk, J Comput Chem, (2011), 32, 1456–1465 
S.Grimme, J.Antony, S.Ehrlich and H.Krieg, J.Chem.Phys., 132, (2010), 154104 
   

----- Orbital basis set information -----
Your calculation utilizes the basis: aug-cc-pVTZ 
    H, B-Ne : Obtained from the ccRepo (grant-hill.group.shef.ac.uk/ccrepo) Feb. 2017
              R. A. Kendall, T. H. Dunning, Jr., R. J. Harrison, J. Chem. Phys. 96, 6796 (1992)
         He : Obtained from the ccRepo (grant-hill.group.shef.ac.uk/ccrepo) Feb. 2017
              D. E. Woon, T. H. Dunning, Jr., J. Chem. Phys. 100, 2975 (1994)
  Li-Be, Na : Obtained from the ccRepo (grant-hill.group.shef.ac.uk/ccrepo) Feb. 2017
              B. P. Prascher, D. E. Woon, K. A. Peterson, T. H. Dunning, Jr., A. K. Wilson, Theor. Chem. Acc. 128, 69 (2011)
         Mg : Obtained from the Peterson Research Group Website (tyr0.chem.wsu.edu/~kipeters) Feb. 2017
              B. P. Prascher, D. E. Woon, K. A. Peterson, T. H. Dunning, Jr., A. K. Wilson, Theor. Chem. Acc. 128, 69 (2011)
      Al-Ar : Obtained from the ccRepo (grant-hill.group.shef.ac.uk/ccrepo) Feb. 2017
              D. E. Woon, T. H. Dunning, Jr., J. Chem. Phys. 98, 1358 (1993)
      Sc-Zn : Obtained from the ccRepo (grant-hill.group.shef.ac.uk/ccrepo) Feb. 2017
              N. B. Balabanov, K. A. Peterson, J. Chem. Phys. 123, 064107 (2005)
              N. B. Balabanov, K. A. Peterson, J. Chem. Phys. 125, 074110 (2006)
      Ga-Kr : Obtained from the ccRepo (grant-hill.group.shef.ac.uk/ccrepo) Feb. 2017
              A. K. Wilson, D. E. Woon, K. A. Peterson, T. H. Dunning, Jr., J. Chem. Phys. 110, 7667 (1999)
     Ag, Au : Obtained from the Peterson Research Group Website (tyr0.chem.wsu.edu/~kipeters) Feb. 2017
              K. A. Peterson, C. Puzzarini, Theor. Chem. Acc. 114, 283 (2005)

----- AuxJ basis set information -----
Your calculation utilizes the auxiliary basis: def2/J
   F. Weigend, Phys. Chem. Chem. Phys. 8, 1057 (2006).

================================================================================
                                        WARNINGS
                       Please study these warnings very carefully!
================================================================================


WARNING: your system is open-shell and RHF/RKS was chosen
  ===> : WILL SWITCH to UHF/UKS


INFO   : the flag for use of LIBINT has been found!

================================================================================
                                       INPUT FILE
================================================================================
NAME = 33_FeCl.in
|  1> #
|  2> # 33_FeCl tpss/aug-cc-pvtz
|  3> #
|  4> ! tpss d3bj aug-cc-pvtz def2/j grid4 nofinalgrid
|  5> 
|  6> *xyz 0 6
|  7>   Fe  0.00000000000000      0.00000000000000     -0.08894892709089
|  8>   Cl  0.00000000000000      0.00000000000000      2.08894892709089
|  9> *
| 10> 
| 11> %pal
| 12> nprocs 24
| 13> end
| 14> 
| 15> 
| 16>                          ****END OF INPUT****
================================================================================

                       ****************************
                       * Single Point Calculation *
                       ****************************

---------------------------------
CARTESIAN COORDINATES (ANGSTROEM)
---------------------------------
  Fe     0.000000    0.000000   -0.088949
  Cl     0.000000    0.000000    2.088949

----------------------------
CARTESIAN COORDINATES (A.U.)
----------------------------
  NO LB      ZA    FRAG     MASS         X           Y           Z
   0 Fe   26.0000    0    55.850    0.000000    0.000000   -0.168089
   1 Cl   17.0000    0    35.453    0.000000    0.000000    3.947541

--------------------------------
INTERNAL COORDINATES (ANGSTROEM)
--------------------------------
 Fe     0   0   0     0.000000000000     0.00000000     0.00000000
 Cl     1   0   0     2.177897854182     0.00000000     0.00000000

---------------------------
INTERNAL COORDINATES (A.U.)
---------------------------
 Fe     0   0   0     0.000000000000     0.00000000     0.00000000
 Cl     1   0   0     4.115630492058     0.00000000     0.00000000

---------------------
BASIS SET INFORMATION
---------------------
There are 2 groups of distinct atoms

 Group   1 Type Fe  : 116s77p23d3f2g contracted to 8s7p5d3f2g pattern {19191919191911/151515151511/77711/111/11}
 Group   2 Type Cl  : 42s17p3d2f contracted to 6s5p3d2f pattern {131313111/77111/111/11}

Atom   0Fe   basis set group =>   1
Atom   1Cl   basis set group =>   2
---------------------------------
AUXILIARY/J BASIS SET INFORMATION
---------------------------------
There are 2 groups of distinct atoms

 Group   1 Type Fe  : 19s5p5d3f3g contracted to 8s5p5d2f3g pattern {121111111/11111/11111/21/111}
 Group   2 Type Cl  : 14s5p5d2f1g contracted to 8s4p3d1f1g pattern {71111111/2111/311/2/1}

Atom   0Fe   basis set group =>   1
Atom   1Cl   basis set group =>   2


           ************************************************************
           *        Program running with 24 parallel MPI-processes    *
           *              working on a common directory               *
           ************************************************************
------------------------------------------------------------------------------
                           ORCA GTO INTEGRAL CALCULATION
                           -- RI-GTO INTEGRALS CHOSEN --
------------------------------------------------------------------------------

                         BASIS SET STATISTICS AND STARTUP INFO

Gaussian basis set:
 # of primitive gaussian shells          ...  285
 # of primitive gaussian functions       ...  623
 # of contracted shells                  ...   41
 # of contracted basis functions         ...  143
 Highest angular momentum                ...    4
 Maximum contraction depth               ...   19
Auxiliary gaussian basis set:
 # of primitive gaussian shells          ...   62
 # of primitive gaussian functions       ...  184
 # of contracted shells                  ...   40
 # of contracted aux-basis functions     ...  140
 Highest angular momentum                ...    4
 Maximum contraction depth               ...   12
Ratio of auxiliary to basis functions    ...  0.98
Integral package used                  ... LIBINT
 One Electron integrals                  ... done
 Ordering auxiliary basis shells         ... done
 Integral threshhold             Thresh  ...  1.000e-10
 Primitive cut-off               TCut    ...  1.000e-11
 Pre-screening matrix                    ... done
 Shell pair data                         ... 
 Ordering of the shell pairs             ... done (   0.000 sec) 861 of 861 pairs
 Determination of significant pairs      ... done (   0.000 sec)
 Creation of shell pair data             ... done (   0.001 sec)
 Storage of shell pair data              ... done (   0.003 sec)
 Shell pair data done in (   0.004 sec)
 Computing two index integrals           ... done
 Cholesky decomposition of the V-matrix  ... done


Timings:
 Total evaluation time                   ...   3.110 sec (  0.052 min)
 One electron matrix time                ...   0.047 sec (  0.001 min) =  1.5%
 Schwartz matrix evaluation time         ...   3.031 sec (  0.051 min) = 97.5%
 Two index repulsion integral time       ...   0.001 sec (  0.000 min) =  0.0%
 Cholesky decomposition of V             ...   0.001 sec (  0.000 min) =  0.0%
 Three index repulsion integral time     ...   0.000 sec (  0.000 min) =  0.0%



           ************************************************************
           *        Program running with 24 parallel MPI-processes    *
           *              working on a common directory               *
           ************************************************************
-------------------------------------------------------------------------------
                                 ORCA SCF
-------------------------------------------------------------------------------

------------
SCF SETTINGS
------------
Hamiltonian:
 Density Functional     Method          .... DFT(GTOs)
 Exchange Functional    Exchange        .... TPSS
 Correlation Functional Correlation     .... TPSS
 LDA part of GGA corr.  LDAOpt          .... PW91-LDA
 Gradients option       PostSCFGGA      .... off
   Density functional embedding theory  .... OFF
   NL short-range parameter             ....  5.000000
 RI-approximation to the Coulomb term is turned on
   Number of auxiliary basis functions  .... 140


General Settings:
 Integral files         IntName         .... 33_FeCl
 Hartree-Fock type      HFTyp           .... UHF
 Total Charge           Charge          ....    0
 Multiplicity           Mult            ....    6
 Number of Electrons    NEL             ....   43
 Basis Dimension        Dim             ....  143
 Nuclear Repulsion      ENuc            ....    107.3954527387 Eh

Convergence Acceleration:
 DIIS                   CNVDIIS         .... on
   Start iteration      DIISMaxIt       ....    12
   Startup error        DIISStart       ....  0.200000
   # of expansion vecs  DIISMaxEq       ....     5
   Bias factor          DIISBfac        ....   1.050
   Max. coefficient     DIISMaxC        ....  10.000
 Newton-Raphson         CNVNR           .... off
 SOSCF                  CNVSOSCF        .... off
 Level Shifting         CNVShift        .... on
   Level shift para.    LevelShift      ....    0.2500
   Turn off err/grad.   ShiftErr        ....    0.0010
 Zerner damping         CNVZerner       .... off
 Static damping         CNVDamp         .... on
   Fraction old density DampFac         ....    0.7000
   Max. Damping (<1)    DampMax         ....    0.9800
   Min. Damping (>=0)   DampMin         ....    0.0000
   Turn off err/grad.   DampErr         ....    0.1000
 Fernandez-Rico         CNVRico         .... off

SCF Procedure:
 Maximum # iterations   MaxIter         ....   125
 SCF integral mode      SCFMode         .... Direct
   Integral package                     .... LIBINT
 Reset frequency        DirectResetFreq ....    20
 Integral Threshold     Thresh          ....  1.000e-10 Eh
 Primitive CutOff       TCut            ....  1.000e-11 Eh

Convergence Tolerance:
 Convergence Check Mode ConvCheckMode   .... Total+1el-Energy
 Convergence forced     ConvForced      .... 0
 Energy Change          TolE            ....  1.000e-06 Eh
 1-El. energy change                    ....  1.000e-03 Eh
 DIIS Error             TolErr          ....  1.000e-06


Diagonalization of the overlap matrix:
Smallest eigenvalue                        ... 1.510e-04
Time for diagonalization                   ...    0.005 sec
Threshold for overlap eigenvalues          ... 1.000e-08
Number of eigenvalues below threshold      ... 0
Time for construction of square roots      ...    0.002 sec
Total time needed                          ...    0.007 sec

-------------------
DFT GRID GENERATION
-------------------

General Integration Accuracy     IntAcc      ...  4.670
Radial Grid Type                 RadialGrid  ... Gauss-Chebyshev
Angular Grid (max. acc.)         AngularGrid ... Lebedev-302
Angular grid pruning method      GridPruning ... 3 (G Style)
Weight generation scheme         WeightScheme... Becke
Basis function cutoff            BFCut       ...    1.0000e-10
Integration weight cutoff        WCut        ...    1.0000e-14
Grids for H and He will be reduced by one unit

# of grid points (after initial pruning)     ...  16378 (   0.0 sec)
# of grid points (after weights+screening)   ...  16351 (   0.0 sec)
nearest neighbour list constructed           ...    0.0 sec
Grid point re-assignment to atoms done       ...    0.0 sec
Grid point division into batches done        ...    0.1 sec
Reduced shell lists constructed in    0.1 sec

Total number of grid points                  ...    16351
Total number of batches                      ...      256
Average number of points per batch           ...       63
Average number of grid points per atom       ...     8176
Average number of shells per batch           ...    14.17 (34.55%)
Average number of basis functions per batch  ...    33.83 (23.66%)
Average number of large shells per batch     ...     7.08 (50.00%)
Average number of large basis fcns per batch ...    18.08 (53.45%)
Maximum spatial batch extension              ...  24.49, 24.19, 18.13 au
Average spatial batch extension              ...   0.85,  0.84,  0.66 au

Time for grid setup =    0.167 sec

------------------------------
INITIAL GUESS: MODEL POTENTIAL
------------------------------
Loading Hartree-Fock densities                     ... done
Calculating cut-offs                               ... done
Setting up the integral package                    ... done
Initializing the effective Hamiltonian             ... done
Starting the Coulomb interaction                   ... done (   0.0 sec)
Reading the grid                                   ... done
Mapping shells                                     ... done
Starting the XC term evaluation                    ... done (   0.0 sec)
  promolecular density results
     # of electrons  =     42.999994011
     EX              =    -81.468928064
     EC              =     -1.805784947
     EX+EC           =    -83.274713011
Transforming the Hamiltonian                       ... done (   0.0 sec)
Diagonalizing the Hamiltonian                      ... done (   0.0 sec)
Back transforming the eigenvectors                 ... done (   0.0 sec)
Now organizing SCF variables                       ... done
                      ------------------
                      INITIAL GUESS DONE (   0.3 sec)
                      ------------------
--------------
SCF ITERATIONS
--------------
ITER       Energy         Delta-E        Max-DP      RMS-DP      [F,P]     Damp
               ***  Starting incremental Fock matrix formation  ***
  0  -1724.0095532103   0.000000000000 0.03255786  0.00057034  0.0768220 0.7000
  1  -1724.0222139271  -0.012660716767 0.02596640  0.00038311  0.0310931 0.7000
                               ***Turning on DIIS***
  2  -1724.0255731514  -0.003359224248 0.07078353  0.00096112  0.0383032 0.0000
  3  -1724.0364491199  -0.010875968553 0.01937559  0.00041763  0.0459764 0.0000
  4  -1724.0386023185  -0.002153198616 0.00568875  0.00013593  0.0145885 0.0000
  5  -1724.0391383170  -0.000535998510 0.00581971  0.00010159  0.0036816 0.0000
  6  -1724.0392575115  -0.000119194508 0.00168609  0.00003323  0.0010248 0.0000
  7  -1724.0392850829  -0.000027571337 0.00289428  0.00004542  0.0005822 0.0000
  8  -1724.0392938310  -0.000008748115 0.00028355  0.00000668  0.0018747 0.0000
  9  -1724.0392988432  -0.000005012240 0.00055190  0.00000929  0.0005743 0.0000
 10  -1724.0392995763  -0.000000733052 0.00025168  0.00000412  0.0003331 0.0000
 11  -1724.0393002710  -0.000000694723 0.00003468  0.00000090  0.0000604 0.0000
 12  -1724.0392999867   0.000000284291 0.00001737  0.00000034  0.0000422 0.0000
                 **** Energy Check signals convergence ****

               *****************************************************
               *                     SUCCESS                       *
               *           SCF CONVERGED AFTER  13 CYCLES          *
               *****************************************************


----------------
TOTAL SCF ENERGY
----------------

Total Energy       :        -1724.03929998 Eh          -46913.49439 eV

Components:
Nuclear Repulsion  :          107.39545274 Eh            2922.37884 eV
Electronic Energy  :        -1831.43475272 Eh          -49835.87323 eV
One Electron Energy:        -2594.74022438 Eh          -70606.47107 eV
Two Electron Energy:          763.30547166 Eh           20770.59784 eV

Virial components:
Potential Energy   :        -3444.98428731 Eh          -93742.78825 eV
Kinetic Energy     :         1720.94498733 Eh           46829.29386 eV
Virial Ratio       :            2.00179803


DFT components:
N(Alpha)           :       24.000004414838 electrons
N(Beta)            :       19.000005020914 electrons
N(Total)           :       43.000009435752 electrons
E(X)               :      -82.159505000744 Eh       
E(C)               :       -1.794127415896 Eh       
E(XC)              :      -83.953632416639 Eh       
DFET-embed. en.    :        0.000000000000 Eh       

---------------
SCF CONVERGENCE
---------------

  Last Energy change         ...    6.8947e-09  Tolerance :   1.0000e-06
  Last MAX-Density change    ...    5.6890e-06  Tolerance :   1.0000e-05
  Last RMS-Density change    ...    8.5363e-08  Tolerance :   1.0000e-06
  Last DIIS Error            ...    1.2675e-05  Tolerance :   1.0000e-06

             **** THE GBW FILE WAS UPDATED (33_FeCl.gbw) ****
             **** DENSITY FILE WAS UPDATED (33_FeCl.scfp) ****
             **** ENERGY FILE WAS UPDATED (33_FeCl.en.tmp) ****
----------------------
UHF SPIN CONTAMINATION
----------------------

Warning: in a DFT calculation there is little theoretical justification to 
         calculate <S**2> as in Hartree-Fock theory. We will do it anyways
         but you should keep in mind that the values have only limited relevance

Expectation value of <S**2>     :     8.753052
Ideal value S*(S+1) for S=2.5   :     8.750000
Deviation                       :     0.003052

             **** THE GBW FILE WAS UPDATED (33_FeCl.gbw) ****
             **** DENSITY FILE WAS UPDATED (33_FeCl.scfp) ****
----------------
ORBITAL ENERGIES
----------------
                 SPIN UP ORBITALS
  NO   OCC          E(Eh)            E(eV) 
   0   1.0000    -255.307359     -6947.2664 
   1   1.0000    -101.009044     -2748.5958 
   2   1.0000     -29.730255      -809.0014 
   3   1.0000     -25.618272      -697.1086 
   4   1.0000     -25.591077      -696.3686 
   5   1.0000     -25.591077      -696.3686 
   6   1.0000      -9.233895      -251.2671 
   7   1.0000      -7.009741      -190.7448 
   8   1.0000      -7.007257      -190.6772 
   9   1.0000      -7.007257      -190.6772 
  10   1.0000      -3.458778       -94.1181 
  11   1.0000      -2.285543       -62.1928 
  12   1.0000      -2.234444       -60.8023 
  13   1.0000      -2.234444       -60.8023 
  14   1.0000      -0.743880       -20.2420 
  15   1.0000      -0.377938       -10.2842 
  16   1.0000      -0.351326        -9.5601 
  17   1.0000      -0.351326        -9.5601 
  18   1.0000      -0.325349        -8.8532 
  19   1.0000      -0.299870        -8.1599 
  20   1.0000      -0.285509        -7.7691 
  21   1.0000      -0.278956        -7.5908 
  22   1.0000      -0.278956        -7.5908 
  23   1.0000      -0.178778        -4.8648 
  24   0.0000      -0.052672        -1.4333 
  25   0.0000      -0.052672        -1.4333 
  26   0.0000      -0.007909        -0.2152 
  27   0.0000      -0.001351        -0.0367 
  28   0.0000       0.021075         0.5735 
  29   0.0000       0.021075         0.5735 
  30   0.0000       0.043296         1.1781 
  31   0.0000       0.046720         1.2713 
  32   0.0000       0.047014         1.2793 
  33   0.0000       0.055412         1.5078 
  34   0.0000       0.058089         1.5807 
  35   0.0000       0.058089         1.5807 
  36   0.0000       0.089380         2.4322 
  37   0.0000       0.106301         2.8926 
  38   0.0000       0.106301         2.8926 
  39   0.0000       0.109511         2.9799 
  40   0.0000       0.149804         4.0764 
  41   0.0000       0.149805         4.0764 
  42   0.0000       0.163962         4.4616 
  43   0.0000       0.209763         5.7079 
  44   0.0000       0.210826         5.7369 
  45   0.0000       0.227769         6.1979 
  46   0.0000       0.227769         6.1979 
  47   0.0000       0.232269         6.3204 
  48   0.0000       0.258921         7.0456 
  49   0.0000       0.259765         7.0686 
  50   0.0000       0.297906         8.1064 
  51   0.0000       0.339334         9.2337 
  52   0.0000       0.339334         9.2337 
  53   0.0000       0.377588        10.2747 
  54   0.0000       0.472205        12.8493 
  55   0.0000       0.546241        14.8640 
  56   0.0000       0.546241        14.8640 
  57   0.0000       0.641945        17.4682 
  58   0.0000       0.671367        18.2688 
  59   0.0000       0.671367        18.2688 
  60   0.0000       0.704478        19.1698 
  61   0.0000       0.704545        19.1716 
  62   0.0000       0.737243        20.0614 
  63   0.0000       0.737243        20.0614 
  64   0.0000       0.758768        20.6471 
  65   0.0000       0.758768        20.6471 
  66   0.0000       0.761410        20.7190 
  67   0.0000       0.762295        20.7431 
  68   0.0000       0.767844        20.8941 
  69   0.0000       0.825246        22.4561 
  70   0.0000       0.946565        25.7573 
  71   0.0000       0.946565        25.7573 
  72   0.0000       0.979761        26.6606 
  73   0.0000       0.988636        26.9021 
  74   0.0000       0.988636        26.9021 
  75   0.0000       0.997297        27.1378 
  76   0.0000       1.000695        27.2303 
  77   0.0000       1.000695        27.2303 
  78   0.0000       1.010156        27.4877 
  79   0.0000       1.046630        28.4802 
  80   0.0000       1.160055        31.5667 
  81   0.0000       1.161883        31.6164 
  82   0.0000       1.329755        36.1845 
  83   0.0000       1.513566        41.1862 
  84   0.0000       1.513566        41.1862 
  85   0.0000       1.822475        49.5921 
  86   0.0000       2.169019        59.0220 
  87   0.0000       2.169215        59.0273 
  88   0.0000       2.265552        61.6488 
  89   0.0000       2.265552        61.6488 
  90   0.0000       2.344582        63.7993 
  91   0.0000       2.344582        63.7993 
  92   0.0000       2.349528        63.9339 
  93   0.0000       2.513326        68.3911 
  94   0.0000       2.543998        69.2257 
  95   0.0000       2.543998        69.2257 
  96   0.0000       2.565005        69.7973 
  97   0.0000       2.578433        70.1627 
  98   0.0000       2.643310        71.9281 
  99   0.0000       2.643310        71.9281 
 100   0.0000       2.717226        73.9395 
 101   0.0000       2.717226        73.9395 
 102   0.0000       2.759696        75.0952 
 103   0.0000       2.769235        75.3547 
 104   0.0000       2.769888        75.3725 
 105   0.0000       2.770599        75.3918 
 106   0.0000       2.824997        76.8721 
 107   0.0000       2.824997        76.8721 
 108   0.0000       2.880452        78.3811 
 109   0.0000       2.880452        78.3811 
 110   0.0000       2.954694        80.4013 
 111   0.0000       3.205076        87.2145 
 112   0.0000       3.205641        87.2299 
 113   0.0000       3.207329        87.2759 
 114   0.0000       3.207329        87.2759 
 115   0.0000       3.244936        88.2992 
 116   0.0000       3.263665        88.8088 
 117   0.0000       3.271642        89.0259 
 118   0.0000       3.487953        94.9120 
 119   0.0000       3.487953        94.9120 
 120   0.0000       3.772779       102.6625 
 121   0.0000       4.320634       117.5704 
 122   0.0000       4.351136       118.4004 
 123   0.0000       4.528773       123.2342 
 124   0.0000       4.528773       123.2342 
 125   0.0000       5.358539       145.8133 
 126   0.0000       5.997732       163.2066 
 127   0.0000       8.693716       236.5680 
 128   0.0000       8.717376       237.2119 
 129   0.0000       8.717376       237.2119 
 130   0.0000       8.726336       237.4557 
 131   0.0000       8.749809       238.0944 
 132   0.0000       8.749809       238.0944 
 133   0.0000       8.809131       239.7086 
 134   0.0000       9.504315       258.6256 
 135   0.0000       9.504315       258.6256 
 136   0.0000       9.509060       258.7547 
 137   0.0000       9.525455       259.2008 
 138   0.0000       9.525808       259.2104 
 139   0.0000       9.531879       259.3756 
 140   0.0000       9.612013       261.5562 
 141   0.0000       9.612013       261.5562 
 142   0.0000       9.727015       264.6855 

                 SPIN DOWN ORBITALS
  NO   OCC          E(Eh)            E(eV) 
   0   1.0000    -255.305513     -6947.2162 
   1   1.0000    -101.007215     -2748.5461 
   2   1.0000     -29.668686      -807.3260 
   3   1.0000     -25.560327      -695.5319 
   4   1.0000     -25.545188      -695.1199 
   5   1.0000     -25.545188      -695.1199 
   6   1.0000      -9.232352      -251.2251 
   7   1.0000      -7.007157      -190.6744 
   8   1.0000      -7.005136      -190.6194 
   9   1.0000      -7.005136      -190.6194 
  10   1.0000      -3.303256       -89.8862 
  11   1.0000      -2.100929       -57.1692 
  12   1.0000      -2.093119       -56.9567 
  13   1.0000      -2.093119       -56.9567 
  14   1.0000      -0.732846       -19.9418 
  15   1.0000      -0.335712        -9.1352 
  16   1.0000      -0.290842        -7.9142 
  17   1.0000      -0.290842        -7.9142 
  18   1.0000      -0.218802        -5.9539 
  19   0.0000      -0.182805        -4.9744 
  20   0.0000      -0.170479        -4.6390 
  21   0.0000      -0.170479        -4.6390 
  22   0.0000      -0.139706        -3.8016 
  23   0.0000      -0.115087        -3.1317 
  24   0.0000      -0.016500        -0.4490 
  25   0.0000      -0.016500        -0.4490 
  26   0.0000       0.002707         0.0737 
  27   0.0000       0.022174         0.6034 
  28   0.0000       0.034199         0.9306 
  29   0.0000       0.034199         0.9306 
  30   0.0000       0.061679         1.6784 
  31   0.0000       0.064321         1.7503 
  32   0.0000       0.066973         1.8224 
  33   0.0000       0.068845         1.8734 
  34   0.0000       0.076806         2.0900 
  35   0.0000       0.076806         2.0900 
  36   0.0000       0.112409         3.0588 
  37   0.0000       0.117893         3.2080 
  38   0.0000       0.117893         3.2080 
  39   0.0000       0.126725         3.4484 
  40   0.0000       0.180375         4.9082 
  41   0.0000       0.180375         4.9083 
  42   0.0000       0.201280         5.4771 
  43   0.0000       0.221546         6.0286 
  44   0.0000       0.224667         6.1135 
  45   0.0000       0.240538         6.5454 
  46   0.0000       0.255262         6.9460 
  47   0.0000       0.255262         6.9460 
  48   0.0000       0.279988         7.6189 
  49   0.0000       0.289121         7.8674 
  50   0.0000       0.318130         8.6568 
  51   0.0000       0.352572         9.5940 
  52   0.0000       0.352572         9.5940 
  53   0.0000       0.394851        10.7444 
  54   0.0000       0.511726        13.9248 
  55   0.0000       0.554432        15.0869 
  56   0.0000       0.554432        15.0869 
  57   0.0000       0.668419        18.1886 
  58   0.0000       0.702711        19.1217 
  59   0.0000       0.702711        19.1217 
  60   0.0000       0.711730        19.3671 
  61   0.0000       0.711793        19.3689 
  62   0.0000       0.766466        20.8566 
  63   0.0000       0.766466        20.8566 
  64   0.0000       0.780047        21.2262 
  65   0.0000       0.792434        21.5632 
  66   0.0000       0.797721        21.7071 
  67   0.0000       0.805477        21.9181 
  68   0.0000       0.805477        21.9181 
  69   0.0000       0.868011        23.6198 
  70   0.0000       0.997936        27.1552 
  71   0.0000       0.997936        27.1552 
  72   0.0000       1.005573        27.3630 
  73   0.0000       1.005573        27.3630 
  74   0.0000       1.035190        28.1690 
  75   0.0000       1.043278        28.3890 
  76   0.0000       1.043278        28.3890 
  77   0.0000       1.062365        28.9084 
  78   0.0000       1.064123        28.9563 
  79   0.0000       1.088583        29.6218 
  80   0.0000       1.182737        32.1839 
  81   0.0000       1.194837        32.5132 
  82   0.0000       1.363697        37.1081 
  83   0.0000       1.551546        42.2197 
  84   0.0000       1.551546        42.2197 
  85   0.0000       1.858645        50.5763 
  86   0.0000       2.177998        59.2663 
  87   0.0000       2.178400        59.2773 
  88   0.0000       2.282200        62.1018 
  89   0.0000       2.282200        62.1018 
  90   0.0000       2.354605        64.0721 
  91   0.0000       2.354605        64.0721 
  92   0.0000       2.364800        64.3495 
  93   0.0000       2.578294        70.1589 
  94   0.0000       2.626216        71.4630 
  95   0.0000       2.626216        71.4630 
  96   0.0000       2.649266        72.0902 
  97   0.0000       2.680462        72.9391 
  98   0.0000       2.719222        73.9938 
  99   0.0000       2.719222        73.9938 
 100   0.0000       2.730451        74.2994 
 101   0.0000       2.730451        74.2994 
 102   0.0000       2.785870        75.8074 
 103   0.0000       2.789671        75.9108 
 104   0.0000       2.793370        76.0115 
 105   0.0000       2.859713        77.8167 
 106   0.0000       2.859713        77.8167 
 107   0.0000       2.874088        78.2079 
 108   0.0000       2.977391        81.0189 
 109   0.0000       2.977391        81.0189 
 110   0.0000       3.033520        82.5463 
 111   0.0000       3.274135        89.0938 
 112   0.0000       3.278076        89.2010 
 113   0.0000       3.290576        89.5411 
 114   0.0000       3.290576        89.5411 
 115   0.0000       3.320141        90.3456 
 116   0.0000       3.338794        90.8532 
 117   0.0000       3.359098        91.4057 
 118   0.0000       3.567578        97.0787 
 119   0.0000       3.567578        97.0787 
 120   0.0000       3.860628       105.0530 
 121   0.0000       4.427622       120.4817 
 122   0.0000       4.470071       121.6368 
 123   0.0000       4.655161       126.6734 
 124   0.0000       4.655161       126.6734 
 125   0.0000       5.440556       148.0451 
 126   0.0000       6.038286       164.3101 
 127   0.0000       8.887914       241.8524 
 128   0.0000       8.887914       241.8524 
 129   0.0000       8.888969       241.8811 
 130   0.0000       8.924087       242.8368 
 131   0.0000       8.946033       243.4339 
 132   0.0000       8.946033       243.4339 
 133   0.0000       9.005325       245.0473 
 134   0.0000       9.640280       262.3254 
 135   0.0000       9.640280       262.3254 
 136   0.0000       9.644461       262.4391 
 137   0.0000       9.647911       262.5330 
 138   0.0000       9.656233       262.7595 
 139   0.0000       9.666189       263.0304 
 140   0.0000       9.752888       265.3896 
 141   0.0000       9.752888       265.3896 
 142   0.0000       9.868100       268.5247 

                    ********************************
                    * MULLIKEN POPULATION ANALYSIS *
                    ********************************

--------------------------------------------
MULLIKEN ATOMIC CHARGES AND SPIN POPULATIONS
--------------------------------------------
   0 Fe:    0.376592    4.748928
   1 Cl:   -0.376592    0.251072
Sum of atomic charges         :   -0.0000000
Sum of atomic spin populations:    5.0000000

-----------------------------------------------------
MULLIKEN REDUCED ORBITAL CHARGES AND SPIN POPULATIONS
-----------------------------------------------------
CHARGE
  0 Fes       :     6.972681  s :     6.972681
      pz      :     4.272084  p :    12.350400
      px      :     4.039158
      py      :     4.039158
      dz2     :     1.112642  d :     6.282712
      dxz     :     1.086145
      dyz     :     1.086145
      dx2y2   :     0.999525
      dxy     :     1.998256
      f0      :     0.005987  f :     0.016996
      f+1     :     0.005446
      f-1     :     0.005446
      f+2     :     0.000001
      f-2     :     0.000012
      f+3     :     0.000052
      f-3     :     0.000052
      g0      :     0.000227  g :     0.000618
      g+1     :     0.000175
      g-1     :     0.000175
      g+2     :     0.000002
      g-2     :     0.000011
      g+3     :     0.000003
      g-3     :     0.000003
      g+4     :     0.000021
      g-4     :     0.000000
  1 Cls       :     5.971091  s :     5.971091
      pz      :     3.655954  p :    11.374766
      px      :     3.859406
      py      :     3.859406
      dz2     :     0.009291  d :     0.027587
      dxz     :     0.008449
      dyz     :     0.008449
      dx2y2   :     0.000269
      dxy     :     0.001127
      f0      :     0.000022  f :     0.003148
      f+1     :     0.001165
      f-1     :     0.001165
      f+2     :     0.000202
      f-2     :     0.000594
      f+3     :     0.000000
      f-3     :     0.000000

SPIN
  0 Fes       :     0.831398  s :     0.831398
      pz      :     0.207263  p :     0.227949
      px      :     0.010343
      py      :     0.010343
      dz2     :     0.867775  d :     3.689950
      dxz     :     0.911078
      dyz     :     0.911078
      dx2y2   :     0.999525
      dxy     :     0.000495
      f0      :    -0.000084  f :    -0.000282
      f+1     :    -0.000063
      f-1     :    -0.000063
      f+2     :     0.000001
      f-2     :    -0.000009
      f+3     :    -0.000032
      f-3     :    -0.000032
      g0      :    -0.000061  g :    -0.000088
      g+1     :    -0.000018
      g-1     :    -0.000018
      g+2     :     0.000002
      g-2     :     0.000007
      g+3     :     0.000001
      g-3     :     0.000001
      g+4     :    -0.000002
      g-4     :    -0.000000
  1 Cls       :     0.000173  s :     0.000173
      pz      :     0.090877  p :     0.247325
      px      :     0.078224
      py      :     0.078224
      dz2     :     0.002581  d :     0.003300
      dxz     :     0.000419
      dyz     :     0.000419
      dx2y2   :     0.000269
      dxy     :    -0.000389
      f0      :     0.000080  f :     0.000274
      f+1     :     0.000048
      f-1     :     0.000048
      f+2     :     0.000202
      f-2     :    -0.000104
      f+3     :    -0.000000
      f-3     :    -0.000000


                     *******************************
                     * LOEWDIN POPULATION ANALYSIS *
                     *******************************

-------------------------------------------
LOEWDIN ATOMIC CHARGES AND SPIN POPULATIONS
-------------------------------------------
   0 Fe:    0.039190    4.626694
   1 Cl:   -0.039190    0.373306

----------------------------------------------------
LOEWDIN REDUCED ORBITAL CHARGES AND SPIN POPULATIONS
----------------------------------------------------
CHARGE
  0 Fes       :     6.759412  s :     6.759412
      pz      :     4.458323  p :    12.580215
      px      :     4.060946
      py      :     4.060946
      dz2     :     1.236474  d :     6.495673
      dxz     :     1.134551
      dyz     :     1.134551
      dx2y2   :     0.997304
      dxy     :     1.992794
      f0      :     0.053254  f :     0.121643
      f+1     :     0.034096
      f-1     :     0.034096
      f+2     :     0.000039
      f-2     :     0.000054
      f+3     :     0.000052
      f-3     :     0.000052
      g0      :     0.001998  g :     0.003867
      g+1     :     0.000913
      g-1     :     0.000913
      g+2     :     0.000002
      g-2     :     0.000015
      g+3     :     0.000003
      g-3     :     0.000003
      g+4     :     0.000021
      g-4     :     0.000000
  1 Cls       :     5.654632  s :     5.654632
      pz      :     3.689595  p :    11.144041
      px      :     3.727223
      py      :     3.727223
      dz2     :     0.106900  d :     0.162254
      dxz     :     0.025315
      dyz     :     0.025315
      dx2y2   :     0.001181
      dxy     :     0.003542
      f0      :     0.039392  f :     0.078263
      f+1     :     0.016901
      f-1     :     0.016901
      f+2     :     0.001474
      f-2     :     0.003595
      f+3     :     0.000000
      f-3     :     0.000000

SPIN
  0 Fes       :     0.681411  s :     0.681411
      pz      :     0.276661  p :     0.311549
      px      :     0.017444
      py      :     0.017444
      dz2     :     0.851971  d :     3.623605
      dxz     :     0.886788
      dyz     :     0.886788
      dx2y2   :     0.997304
      dxy     :     0.000753
      f0      :     0.003572  f :     0.009790
      f+1     :     0.003101
      f-1     :     0.003101
      f+2     :     0.000039
      f-2     :     0.000040
      f+3     :    -0.000032
      f-3     :    -0.000032
      g0      :     0.000154  g :     0.000339
      g+1     :     0.000092
      g-1     :     0.000092
      g+2     :     0.000002
      g-2     :    -0.000000
      g+3     :     0.000001
      g-3     :     0.000001
      g+4     :    -0.000002
      g-4     :    -0.000000
  1 Cls       :     0.029679  s :     0.029679
      pz      :     0.130514  p :     0.270904
      px      :     0.070195
      py      :     0.070195
      dz2     :     0.021908  d :     0.046654
      dxz     :     0.012064
      dyz     :     0.012064
      dx2y2   :     0.001181
      dxy     :    -0.000562
      f0      :     0.004132  f :     0.026069
      f+1     :     0.010347
      f-1     :     0.010347
      f+2     :     0.001474
      f-2     :    -0.000231
      f+3     :    -0.000000
      f-3     :    -0.000000


                      *****************************
                      * MAYER POPULATION ANALYSIS *
                      *****************************

  NA   - Mulliken gross atomic population
  ZA   - Total nuclear charge
  QA   - Mulliken gross atomic charge
  VA   - Mayer's total valence
  BVA  - Mayer's bonded valence
  FA   - Mayer's free valence

  ATOM       NA         ZA         QA         VA         BVA        FA
  0 Fe    25.6234    26.0000     0.3766     5.5319     1.0655     4.4665
  1 Cl    17.3766    17.0000    -0.3766     1.0927     1.0655     0.0273

  Mayer bond orders larger than 0.100000
B(  0-Fe,  1-Cl) :   1.0655 

-------
TIMINGS
-------

Total SCF time: 0 days 0 hours 0 min 3 sec 

Total time                  ....       3.490 sec
Sum of individual times     ....       3.343 sec  ( 95.8%)

Fock matrix formation       ....       2.941 sec  ( 84.3%)
  Split-RI-J                ....       1.938 sec  ( 65.9% of F)
  XC integration            ....       0.905 sec  ( 30.8% of F)
    Basis function eval.    ....       0.098 sec  ( 10.8% of XC)
    Density eval.           ....       0.092 sec  ( 10.2% of XC)
    XC-Functional eval.     ....       0.024 sec  (  2.6% of XC)
    XC-Potential eval.      ....       0.259 sec  ( 28.6% of XC)
Diagonalization             ....       0.073 sec  (  2.1%)
Density matrix formation    ....       0.009 sec  (  0.3%)
Population analysis         ....       0.007 sec  (  0.2%)
Initial guess               ....       0.118 sec  (  3.4%)
Orbital Transformation      ....       0.000 sec  (  0.0%)
Orbital Orthonormalization  ....       0.000 sec  (  0.0%)
DIIS solution               ....       0.028 sec  (  0.8%)
Grid generation             ....       0.167 sec  (  4.8%)


-------------------------------------------------------------------------------
                          DFT DISPERSION CORRECTION                            
                                                                               
                              DFTD3 V3.1  Rev 1                                
                          USING Becke-Johnson damping                          
-------------------------------------------------------------------------------
The TPSS functional is recognized
Active option DFTDOPT                   ...         4   

molecular C6(AA) [au] = 595.262319 


            DFT-D V3
 parameters
 s6 scaling factor         :     1.0000 
 a1 scaling factor         :     0.4535 
 s8 scaling factor         :     1.9435 
 a2 scaling factor         :     4.4752 
 ad hoc parameters k1-k3   :    16.0000     1.3333    -4.0000 

 Edisp/kcal,au: -0.899387549150  -0.001433265138 
 E6   /kcal   :  -0.310822468 
 E8   /kcal   :  -0.588565081 
 % E8         :  65.440652516 

-------------------------   ----------------
Dispersion correction           -0.001433265
-------------------------   ----------------


-------------------------   --------------------
FINAL SINGLE POINT ENERGY     -1724.040733244959
-------------------------   --------------------


                            ***************************************
                            *     ORCA property calculations      *
                            ***************************************

                                    ---------------------
                                    Active property flags
                                    ---------------------
   (+) Dipole Moment


------------------------------------------------------------------------------
                       ORCA ELECTRIC PROPERTIES CALCULATION
------------------------------------------------------------------------------

Dipole Moment Calculation                       ... on
Quadrupole Moment Calculation                   ... off
Polarizability Calculation                      ... off
GBWName                                         ... 33_FeCl.gbw
Electron density file                           ... 33_FeCl.scfp
The origin for moment calculation is the CENTER OF MASS  = ( 0.000000,  0.000000  1.430012)

-------------
DIPOLE MOMENT
-------------
                                X             Y             Z
Electronic contribution:      0.00000       0.00000      -1.89695
Nuclear contribution   :      0.00000       0.00000       1.24736
                        -----------------------------------------
Total Dipole Moment    :      0.00000       0.00000      -0.64959
                        -----------------------------------------
Magnitude (a.u.)       :      0.64959
Magnitude (Debye)      :      1.65114



--------------------
Rotational spectrum 
--------------------
 
Rotational constants in cm-1:     0.000000     0.163882     0.163882 
Rotational constants in MHz :     0.000000  4913.053230  4913.053230 

 Dipole components along the rotational axes: 
x,y,z [a.u.] :    -0.649594     0.000000     0.000000 
x,y,z [Debye]:    -1.651137     0.000000     0.000000 

 

Timings for individual modules:

Sum of individual times         ...        7.396 sec (=   0.123 min)
GTO integral calculation        ...        3.571 sec (=   0.060 min)  48.3 %
SCF iterations                  ...        3.826 sec (=   0.064 min)  51.7 %
                             ****ORCA TERMINATED NORMALLY****
TOTAL RUN TIME: 0 days 0 hours 0 minutes 7 seconds 964 msec
