
                                 *****************
                                 * O   R   C   A *
                                 *****************

           --- An Ab Initio, DFT and Semiempirical electronic structure package ---

                  #######################################################
                  #                        -***-                        #
                  #          Department of theory and spectroscopy      #
                  #               Directorship: Frank Neese             #
                  #        Max Planck Institute fuer Kohlenforschung    #
                  #                Kaiser Wilhelm Platz 1               #
                  #                 D-45470 Muelheim/Ruhr               #
                  #                      Germany                        #
                  #                                                     #
                  #                  All rights reserved                #
                  #                        -***-                        #
                  #######################################################


                         Program Version 4.2.0 -  RELEASE  -


 With contributions from (in alphabetic order):
   Daniel Aravena         : Magnetic Suceptibility
   Michael Atanasov       : Ab Initio Ligand Field Theory (pilot matlab implementation)
   Alexander A. Auer      : GIAO ZORA, VPT2
   Ute Becker             : Parallelization
   Giovanni Bistoni       : ED, misc. LED, open-shell LED, HFLED
   Martin Brehm           : Molecular dynamics
   Dmytro Bykov           : SCF Hessian
   Vijay G. Chilkuri      : MRCI spin determinant printing, contributions to CSF-ICE
   Dipayan Datta          : RHF DLPNO-CCSD density
   Achintya Kumar Dutta   : EOM-CC, STEOM-CC
   Dmitry Ganyushin       : Spin-Orbit,Spin-Spin,Magnetic field MRCI
   Miquel Garcia          : C-PCM Hessian, Gaussian charge scheme
   Yang Guo               : DLPNO-NEVPT2, CIM, IAO-localization
   Andreas Hansen         : Spin unrestricted coupled pair/coupled cluster methods
   Benjamin Helmich-Paris : CASSCF linear response (MC-RPA)
   Lee Huntington         : MR-EOM, pCC
   Robert Izsak           : Overlap fitted RIJCOSX, COSX-SCS-MP3, EOM
   Christian Kollmar      : KDIIS, OOCD, Brueckner-CCSD(T), CCSD density
   Simone Kossmann        : Meta GGA functionals, TD-DFT gradient, OOMP2, MP2 Hessian
   Martin Krupicka        : AUTO-CI
   Lucas Lang             : DCDCAS
   Dagmar Lenk            : GEPOL surface, SMD
   Dimitrios Liakos       : Extrapolation schemes; Compound Job, initial MDCI parallelization
   Dimitrios Manganas     : Further ROCIS development; embedding schemes
   Dimitrios Pantazis     : SARC Basis sets
   Taras Petrenko         : DFT Hessian,TD-DFT gradient, ASA, ECA, R-Raman, ABS, FL, XAS/XES, NRVS
   Peter Pinski           : DLPNO-MP2, DLPNO-MP2 Gradient
   Christoph Reimann      : Effective Core Potentials
   Marius Retegan         : Local ZFS, SOC
   Christoph Riplinger    : Optimizer, TS searches, QM/MM, DLPNO-CCSD(T), (RO)-DLPNO pert. Triples
   Tobias Risthaus        : Range-separated hybrids, TD-DFT gradient, RPA, STAB
   Michael Roemelt        : Original ROCIS implementation
   Masaaki Saitow         : Open-shell DLPNO-CCSD energy and density
   Barbara Sandhoefer     : DKH picture change effects
   Avijit Sen             : IP-ROCIS
   Kantharuban Sivalingam : CASSCF convergence, NEVPT2, FIC-MRCI
   Bernardo de Souza      : ESD, SOC TD-DFT
   Georgi Stoychev        : AutoAux, RI-MP2 NMR
   Willem Van den Heuvel  : Paramagnetic NMR
   Boris Wezisla          : Elementary symmetry handling
   Frank Wennmohs         : Technical directorship


 We gratefully acknowledge several colleagues who have allowed us to
 interface, adapt or use parts of their codes:
   Stefan Grimme, W. Hujo, H. Kruse,             : VdW corrections, initial TS optimization,
                  C. Bannwarth                     DFT functionals, gCP, sTDA/sTD-DF
   Ed Valeev, F. Pavosevic, A. Kumar             : LibInt (2-el integral package), F12 methods
   Garnet Chan, S. Sharma, J. Yang, R. Olivares  : DMRG
   Ulf Ekstrom                                   : XCFun DFT Library
   Mihaly Kallay                                 : mrcc  (arbitrary order and MRCC methods)
   Andreas Klamt, Michael Diedenhofen            : otool_cosmo (COSMO solvation model)
   Jiri Pittner, Ondrej Demel                    : Mk-CCSD
   Frank Weinhold                                : gennbo (NPA and NBO analysis)
   Christopher J. Cramer and Donald G. Truhlar   : smd solvation model
   Lars Goerigk                                  : TD-DFT with DH, B97 family of functionals
   V. Asgeirsson, H. Jonsson                     : NEB implementation
   FAccTs GmbH                                   : IRC, NEB, NEB-TS, Multilevel, MM, QM/MM, CI optimization
   S Lehtola, MJT Oliveira, MAL Marques          : LibXC Library


 Your calculation uses the libint2 library for the computation of 2-el integrals
 For citations please refer to: http://libint.valeyev.net

 Your ORCA version has been built with support for libXC version: 4.2.3
 For citations please refer to: https://tddft.org/programs/libxc/

 This ORCA versions uses:
   CBLAS   interface :  Fast vector & matrix operations
   LAPACKE interface :  Fast linear algebra routines
   SCALAPACK package :  Parallel linear algebra routines


Your calculation utilizes the atom-pairwise dispersion correction
with the Becke-Johnson damping scheme (D3BJ)
Cite in your paper:
S.Grimme, S.Ehrlich, L.Goerigk, J Comput Chem, (2011), 32, 1456–1465 
S.Grimme, J.Antony, S.Ehrlich and H.Krieg, J.Chem.Phys., 132, (2010), 154104 
   

----- Orbital basis set information -----
Your calculation utilizes the basis: aug-cc-pVTZ 
    H, B-Ne : Obtained from the ccRepo (grant-hill.group.shef.ac.uk/ccrepo) Feb. 2017
              R. A. Kendall, T. H. Dunning, Jr., R. J. Harrison, J. Chem. Phys. 96, 6796 (1992)
         He : Obtained from the ccRepo (grant-hill.group.shef.ac.uk/ccrepo) Feb. 2017
              D. E. Woon, T. H. Dunning, Jr., J. Chem. Phys. 100, 2975 (1994)
  Li-Be, Na : Obtained from the ccRepo (grant-hill.group.shef.ac.uk/ccrepo) Feb. 2017
              B. P. Prascher, D. E. Woon, K. A. Peterson, T. H. Dunning, Jr., A. K. Wilson, Theor. Chem. Acc. 128, 69 (2011)
         Mg : Obtained from the Peterson Research Group Website (tyr0.chem.wsu.edu/~kipeters) Feb. 2017
              B. P. Prascher, D. E. Woon, K. A. Peterson, T. H. Dunning, Jr., A. K. Wilson, Theor. Chem. Acc. 128, 69 (2011)
      Al-Ar : Obtained from the ccRepo (grant-hill.group.shef.ac.uk/ccrepo) Feb. 2017
              D. E. Woon, T. H. Dunning, Jr., J. Chem. Phys. 98, 1358 (1993)
      Sc-Zn : Obtained from the ccRepo (grant-hill.group.shef.ac.uk/ccrepo) Feb. 2017
              N. B. Balabanov, K. A. Peterson, J. Chem. Phys. 123, 064107 (2005)
              N. B. Balabanov, K. A. Peterson, J. Chem. Phys. 125, 074110 (2006)
      Ga-Kr : Obtained from the ccRepo (grant-hill.group.shef.ac.uk/ccrepo) Feb. 2017
              A. K. Wilson, D. E. Woon, K. A. Peterson, T. H. Dunning, Jr., J. Chem. Phys. 110, 7667 (1999)
     Ag, Au : Obtained from the Peterson Research Group Website (tyr0.chem.wsu.edu/~kipeters) Feb. 2017
              K. A. Peterson, C. Puzzarini, Theor. Chem. Acc. 114, 283 (2005)

----- AuxJ basis set information -----
Your calculation utilizes the auxiliary basis: def2/J
   F. Weigend, Phys. Chem. Chem. Phys. 8, 1057 (2006).

================================================================================
                                        WARNINGS
                       Please study these warnings very carefully!
================================================================================


WARNING: your system is open-shell and RHF/RKS was chosen
  ===> : WILL SWITCH to UHF/UKS


INFO   : the flag for use of LIBINT has been found!

================================================================================
                                       INPUT FILE
================================================================================
NAME = 35_FeO.in
|  1> #
|  2> # 35_FeO tpss/aug-cc-pvtz
|  3> #
|  4> ! tpss d3bj aug-cc-pvtz def2/j grid4 nofinalgrid
|  5> 
|  6> *xyz 0 5
|  7>   Fe  0.00000000000000      0.00000000000000      0.19611340956582
|  8>   O   0.00000000000000      0.00000000000000      1.80388659043418
|  9> *
| 10> 
| 11> %pal
| 12> nprocs 24
| 13> end
| 14> 
| 15> 
| 16>                          ****END OF INPUT****
================================================================================

                       ****************************
                       * Single Point Calculation *
                       ****************************

---------------------------------
CARTESIAN COORDINATES (ANGSTROEM)
---------------------------------
  Fe     0.000000    0.000000    0.196113
  O      0.000000    0.000000    1.803887

----------------------------
CARTESIAN COORDINATES (A.U.)
----------------------------
  NO LB      ZA    FRAG     MASS         X           Y           Z
   0 Fe   26.0000    0    55.850    0.000000    0.000000    0.370601
   1 O     8.0000    0    15.999    0.000000    0.000000    3.408852

--------------------------------
INTERNAL COORDINATES (ANGSTROEM)
--------------------------------
 Fe     0   0   0     0.000000000000     0.00000000     0.00000000
 O      1   0   0     1.607773180868     0.00000000     0.00000000

---------------------------
INTERNAL COORDINATES (A.U.)
---------------------------
 Fe     0   0   0     0.000000000000     0.00000000     0.00000000
 O      1   0   0     3.038250997305     0.00000000     0.00000000

---------------------
BASIS SET INFORMATION
---------------------
There are 2 groups of distinct atoms

 Group   1 Type Fe  : 116s77p23d3f2g contracted to 8s7p5d3f2g pattern {19191919191911/151515151511/77711/111/11}
 Group   2 Type O   : 19s6p3d2f contracted to 5s4p3d2f pattern {88111/3111/111/11}

Atom   0Fe   basis set group =>   1
Atom   1O    basis set group =>   2
---------------------------------
AUXILIARY/J BASIS SET INFORMATION
---------------------------------
There are 2 groups of distinct atoms

 Group   1 Type Fe  : 19s5p5d3f3g contracted to 8s5p5d2f3g pattern {121111111/11111/11111/21/111}
 Group   2 Type O   : 12s5p4d2f1g contracted to 6s4p3d1f1g pattern {711111/2111/211/2/1}

Atom   0Fe   basis set group =>   1
Atom   1O    basis set group =>   2


           ************************************************************
           *        Program running with 24 parallel MPI-processes    *
           *              working on a common directory               *
           ************************************************************
------------------------------------------------------------------------------
                           ORCA GTO INTEGRAL CALCULATION
                           -- RI-GTO INTEGRALS CHOSEN --
------------------------------------------------------------------------------

                         BASIS SET STATISTICS AND STARTUP INFO

Gaussian basis set:
 # of primitive gaussian shells          ...  251
 # of primitive gaussian functions       ...  567
 # of contracted shells                  ...   39
 # of contracted basis functions         ...  139
 Highest angular momentum                ...    4
 Maximum contraction depth               ...   19
Auxiliary gaussian basis set:
 # of primitive gaussian shells          ...   59
 # of primitive gaussian functions       ...  177
 # of contracted shells                  ...   38
 # of contracted aux-basis functions     ...  138
 Highest angular momentum                ...    4
 Maximum contraction depth               ...   12
Ratio of auxiliary to basis functions    ...  0.99
Integral package used                  ... LIBINT
 One Electron integrals                  ... done
 Ordering auxiliary basis shells         ... done
 Integral threshhold             Thresh  ...  1.000e-10
 Primitive cut-off               TCut    ...  1.000e-11
 Pre-screening matrix                    ... done
 Shell pair data                         ... 
 Ordering of the shell pairs             ... done (   0.000 sec) 780 of 780 pairs
 Determination of significant pairs      ... done (   0.000 sec)
 Creation of shell pair data             ... done (   0.001 sec)
 Storage of shell pair data              ... done (   0.144 sec)
 Shell pair data done in (   0.146 sec)
 Computing two index integrals           ... done
 Cholesky decomposition of the V-matrix  ... done


Timings:
 Total evaluation time                   ...   2.793 sec (  0.047 min)
 One electron matrix time                ...   0.045 sec (  0.001 min) =  1.6%
 Schwartz matrix evaluation time         ...   2.573 sec (  0.043 min) = 92.1%
 Two index repulsion integral time       ...   0.002 sec (  0.000 min) =  0.1%
 Cholesky decomposition of V             ...   0.001 sec (  0.000 min) =  0.0%
 Three index repulsion integral time     ...   0.000 sec (  0.000 min) =  0.0%



           ************************************************************
           *        Program running with 24 parallel MPI-processes    *
           *              working on a common directory               *
           ************************************************************
-------------------------------------------------------------------------------
                                 ORCA SCF
-------------------------------------------------------------------------------

------------
SCF SETTINGS
------------
Hamiltonian:
 Density Functional     Method          .... DFT(GTOs)
 Exchange Functional    Exchange        .... TPSS
 Correlation Functional Correlation     .... TPSS
 LDA part of GGA corr.  LDAOpt          .... PW91-LDA
 Gradients option       PostSCFGGA      .... off
   Density functional embedding theory  .... OFF
   NL short-range parameter             ....  5.000000
 RI-approximation to the Coulomb term is turned on
   Number of auxiliary basis functions  .... 138


General Settings:
 Integral files         IntName         .... 35_FeO
 Hartree-Fock type      HFTyp           .... UHF
 Total Charge           Charge          ....    0
 Multiplicity           Mult            ....    5
 Number of Electrons    NEL             ....   34
 Basis Dimension        Dim             ....  139
 Nuclear Repulsion      ENuc            ....     68.4604399651 Eh

Convergence Acceleration:
 DIIS                   CNVDIIS         .... on
   Start iteration      DIISMaxIt       ....    12
   Startup error        DIISStart       ....  0.200000
   # of expansion vecs  DIISMaxEq       ....     5
   Bias factor          DIISBfac        ....   1.050
   Max. coefficient     DIISMaxC        ....  10.000
 Newton-Raphson         CNVNR           .... off
 SOSCF                  CNVSOSCF        .... off
 Level Shifting         CNVShift        .... on
   Level shift para.    LevelShift      ....    0.2500
   Turn off err/grad.   ShiftErr        ....    0.0010
 Zerner damping         CNVZerner       .... off
 Static damping         CNVDamp         .... on
   Fraction old density DampFac         ....    0.7000
   Max. Damping (<1)    DampMax         ....    0.9800
   Min. Damping (>=0)   DampMin         ....    0.0000
   Turn off err/grad.   DampErr         ....    0.1000
 Fernandez-Rico         CNVRico         .... off

SCF Procedure:
 Maximum # iterations   MaxIter         ....   125
 SCF integral mode      SCFMode         .... Direct
   Integral package                     .... LIBINT
 Reset frequency        DirectResetFreq ....    20
 Integral Threshold     Thresh          ....  1.000e-10 Eh
 Primitive CutOff       TCut            ....  1.000e-11 Eh

Convergence Tolerance:
 Convergence Check Mode ConvCheckMode   .... Total+1el-Energy
 Convergence forced     ConvForced      .... 0
 Energy Change          TolE            ....  1.000e-06 Eh
 1-El. energy change                    ....  1.000e-03 Eh
 DIIS Error             TolErr          ....  1.000e-06


Diagonalization of the overlap matrix:
Smallest eigenvalue                        ... 7.094e-05
Time for diagonalization                   ...    0.005 sec
Threshold for overlap eigenvalues          ... 1.000e-08
Number of eigenvalues below threshold      ... 0
Time for construction of square roots      ...    0.002 sec
Total time needed                          ...    0.008 sec

-------------------
DFT GRID GENERATION
-------------------

General Integration Accuracy     IntAcc      ...  4.670
Radial Grid Type                 RadialGrid  ... Gauss-Chebyshev
Angular Grid (max. acc.)         AngularGrid ... Lebedev-302
Angular grid pruning method      GridPruning ... 3 (G Style)
Weight generation scheme         WeightScheme... Becke
Basis function cutoff            BFCut       ...    1.0000e-10
Integration weight cutoff        WCut        ...    1.0000e-14
Grids for H and He will be reduced by one unit

# of grid points (after initial pruning)     ...  15852 (   0.0 sec)
# of grid points (after weights+screening)   ...  15810 (   0.0 sec)
nearest neighbour list constructed           ...    0.0 sec
Grid point re-assignment to atoms done       ...    0.0 sec
Grid point division into batches done        ...    0.1 sec
Reduced shell lists constructed in    0.1 sec

Total number of grid points                  ...    15810
Total number of batches                      ...      248
Average number of points per batch           ...       63
Average number of grid points per atom       ...     7905
Average number of shells per batch           ...    14.58 (37.39%)
Average number of basis functions per batch  ...    35.25 (25.36%)
Average number of large shells per batch     ...     6.42 (44.00%)
Average number of large basis fcns per batch ...    16.42 (46.57%)
Maximum spatial batch extension              ...  28.57, 31.41, 18.17 au
Average spatial batch extension              ...   0.89,  0.95,  0.67 au

Time for grid setup =    0.156 sec

------------------------------
INITIAL GUESS: MODEL POTENTIAL
------------------------------
Loading Hartree-Fock densities                     ... done
Calculating cut-offs                               ... done
Setting up the integral package                    ... done
Initializing the effective Hamiltonian             ... done
Starting the Coulomb interaction                   ... done (   0.0 sec)
Reading the grid                                   ... done
Mapping shells                                     ... done
Starting the XC term evaluation                    ... done (   0.0 sec)
  promolecular density results
     # of electrons  =     33.999990648
     EX              =    -62.194443659
     EC              =     -1.408159603
     EX+EC           =    -63.602603261
Transforming the Hamiltonian                       ... done (   0.0 sec)
Diagonalizing the Hamiltonian                      ... done (   0.0 sec)
Back transforming the eigenvectors                 ... done (   0.0 sec)
Now organizing SCF variables                       ... done
                      ------------------
                      INITIAL GUESS DONE (   0.3 sec)
                      ------------------
--------------
SCF ITERATIONS
--------------
ITER       Energy         Delta-E        Max-DP      RMS-DP      [F,P]     Damp
               ***  Starting incremental Fock matrix formation  ***
  0  -1338.7195791233   0.000000000000 0.19977403  0.00235093  0.4600449 0.7000
  1  -1338.7796723095  -0.060093186147 0.09457069  0.00138344  0.2582155 0.7000
                               ***Turning on DIIS***
  2  -1338.8681942040  -0.088521894568 0.16253222  0.00209766  0.0447422 0.0000
  3  -1338.8830534409  -0.014859236898 0.02475631  0.00028639  0.3353109 0.7000
  4  -1338.9104149204  -0.027361479416 0.03217212  0.00033070  0.3011271 0.7000
  5  -1338.9361290689  -0.025714148532 0.02922602  0.00030515  0.2604950 0.7000
  6  -1338.9556756862  -0.019546617347 0.02320462  0.00025600  0.2229785 0.7000
  7  -1338.9701193873  -0.014443701102 0.02774643  0.00057079  0.1916932 0.7000
  8  -1338.9995453554  -0.029425968032 0.07407878  0.00100892  0.0939615 0.0000
  9  -1338.9966028361   0.002942519261 0.00394155  0.00010301  0.1426357 0.7000
 10  -1339.0005209031  -0.003918066985 0.00530739  0.00011111  0.1294190 0.7000
 11  -1339.0054619129  -0.004941009783 0.00573976  0.00009051  0.1100141 0.7000
 12  -1339.0097498206  -0.004287907778 0.01948802  0.00024963  0.0900428 0.0000
 13  -1339.0182221934  -0.008472372745 0.01147241  0.00022149  0.0276418 0.0000
 14  -1339.0184678505  -0.000245657063 0.01009520  0.00018875  0.0303422 0.0000
 15  -1339.0189863653  -0.000518514892 0.00342544  0.00005194  0.0130583 0.0000
 16  -1339.0191300642  -0.000143698803 0.00163430  0.00001795  0.0047146 0.0000
 17  -1339.0191567321  -0.000026667917 0.00080419  0.00000931  0.0016966 0.0000
 18  -1339.0191604871  -0.000003755004 0.00128428  0.00001205  0.0005782 0.0000
 19  -1339.0191606649  -0.000000177792 0.00026139  0.00000248  0.0008261 0.0000
               *** Restarting incremental Fock matrix formation ***
                                   *** Resetting DIIS ***
 20  -1339.0191611315  -0.000000466626 0.00060694  0.00000903  0.0002963 0.0000
 21  -1339.0191572661   0.000003865384 0.00023233  0.00000389  0.0016465 0.0000
 22  -1339.0191601718  -0.000002905739 0.00040094  0.00000429  0.0007868 0.0000
 23  -1339.0191611237  -0.000000951831 0.00008602  0.00000112  0.0002071 0.0000
                 **** Energy Check signals convergence ****

               *****************************************************
               *                     SUCCESS                       *
               *           SCF CONVERGED AFTER  24 CYCLES          *
               *****************************************************


----------------
TOTAL SCF ENERGY
----------------

Total Energy       :        -1339.01916136 Eh          -36436.56378 eV

Components:
Nuclear Repulsion  :           68.46043997 Eh            1862.90328 eV
Electronic Energy  :        -1407.47960133 Eh          -38299.46706 eV
One Electron Energy:        -1986.71468270 Eh          -54061.25494 eV
Two Electron Energy:          579.23508138 Eh           15761.78788 eV

Virial components:
Potential Energy   :        -2675.85102278 Eh          -72813.60810 eV
Kinetic Energy     :         1336.83186142 Eh           36377.04432 eV
Virial Ratio       :            2.00163618


DFT components:
N(Alpha)           :       19.000001018128 electrons
N(Beta)            :       15.000001909249 electrons
N(Total)           :       34.000002927377 electrons
E(X)               :      -62.852799014163 Eh       
E(C)               :       -1.414140566787 Eh       
E(XC)              :      -64.266939580951 Eh       
DFET-embed. en.    :        0.000000000000 Eh       

---------------
SCF CONVERGENCE
---------------

  Last Energy change         ...   -2.3926e-07  Tolerance :   1.0000e-06
  Last MAX-Density change    ...    3.8238e-05  Tolerance :   1.0000e-05
  Last RMS-Density change    ...    3.8738e-07  Tolerance :   1.0000e-06
  Last DIIS Error            ...    2.3878e-05  Tolerance :   1.0000e-06

             **** THE GBW FILE WAS UPDATED (35_FeO.gbw) ****
             **** DENSITY FILE WAS UPDATED (35_FeO.scfp) ****
             **** ENERGY FILE WAS UPDATED (35_FeO.en.tmp) ****
----------------------
UHF SPIN CONTAMINATION
----------------------

Warning: in a DFT calculation there is little theoretical justification to 
         calculate <S**2> as in Hartree-Fock theory. We will do it anyways
         but you should keep in mind that the values have only limited relevance

Expectation value of <S**2>     :     6.019640
Ideal value S*(S+1) for S=2.0   :     6.000000
Deviation                       :     0.019640

             **** THE GBW FILE WAS UPDATED (35_FeO.gbw) ****
             **** DENSITY FILE WAS UPDATED (35_FeO.scfp) ****
----------------
ORBITAL ENERGIES
----------------
                 SPIN UP ORBITALS
  NO   OCC          E(Eh)            E(eV) 
   0   1.0000    -255.248628     -6945.6683 
   1   1.0000     -29.661713      -807.1362 
   2   1.0000     -25.546002      -695.1421 
   3   1.0000     -25.526501      -694.6114 
   4   1.0000     -25.526501      -694.6114 
   5   1.0000     -18.871108      -513.5090 
   6   1.0000      -3.380988       -92.0014 
   7   1.0000      -2.206091       -60.0308 
   8   1.0000      -2.160919       -58.8016 
   9   1.0000      -2.160919       -58.8016 
  10   1.0000      -0.825578       -22.4651 
  11   1.0000      -0.332476        -9.0471 
  12   1.0000      -0.322262        -8.7692 
  13   1.0000      -0.322262        -8.7692 
  14   1.0000      -0.260520        -7.0891 
  15   1.0000      -0.221786        -6.0351 
  16   1.0000      -0.211577        -5.7573 
  17   1.0000      -0.199788        -5.4365 
  18   1.0000      -0.199788        -5.4365 
  19   0.0000      -0.126441        -3.4406 
  20   0.0000      -0.028767        -0.7828 
  21   0.0000      -0.028767        -0.7828 
  22   0.0000       0.001911         0.0520 
  23   0.0000       0.008367         0.2277 
  24   0.0000       0.031782         0.8648 
  25   0.0000       0.031782         0.8648 
  26   0.0000       0.055925         1.5218 
  27   0.0000       0.056030         1.5247 
  28   0.0000       0.056219         1.5298 
  29   0.0000       0.060241         1.6392 
  30   0.0000       0.060241         1.6392 
  31   0.0000       0.078677         2.1409 
  32   0.0000       0.099666         2.7121 
  33   0.0000       0.161084         4.3833 
  34   0.0000       0.161084         4.3833 
  35   0.0000       0.192341         5.2339 
  36   0.0000       0.203848         5.5470 
  37   0.0000       0.203848         5.5470 
  38   0.0000       0.229472         6.2443 
  39   0.0000       0.251270         6.8374 
  40   0.0000       0.253069         6.8864 
  41   0.0000       0.274826         7.4784 
  42   0.0000       0.274826         7.4784 
  43   0.0000       0.309260         8.4154 
  44   0.0000       0.455398        12.3920 
  45   0.0000       0.556125        15.1329 
  46   0.0000       0.556228        15.1357 
  47   0.0000       0.565851        15.3976 
  48   0.0000       0.656774        17.8717 
  49   0.0000       0.656774        17.8717 
  50   0.0000       0.708533        19.2802 
  51   0.0000       0.756888        20.5960 
  52   0.0000       0.756888        20.5960 
  53   0.0000       0.790739        21.5171 
  54   0.0000       0.790739        21.5171 
  55   0.0000       0.885976        24.1086 
  56   0.0000       0.886582        24.1251 
  57   0.0000       0.886582        24.1251 
  58   0.0000       0.920437        25.0464 
  59   0.0000       0.921921        25.0867 
  60   0.0000       0.926740        25.2179 
  61   0.0000       0.926740        25.2179 
  62   0.0000       1.045485        28.4491 
  63   0.0000       1.059178        28.8217 
  64   0.0000       1.063932        28.9511 
  65   0.0000       1.087966        29.6051 
  66   0.0000       1.396840        38.0099 
  67   0.0000       1.396840        38.0099 
  68   0.0000       1.583106        43.0785 
  69   0.0000       1.841773        50.1172 
  70   0.0000       1.847026        50.2601 
  71   0.0000       1.847026        50.2601 
  72   0.0000       1.879577        51.1459 
  73   0.0000       1.880343        51.1667 
  74   0.0000       2.013371        54.7866 
  75   0.0000       2.013371        54.7866 
  76   0.0000       2.099866        57.1403 
  77   0.0000       2.100830        57.1665 
  78   0.0000       2.224844        60.5411 
  79   0.0000       2.403648        65.4066 
  80   0.0000       2.403648        65.4066 
  81   0.0000       2.569654        69.9238 
  82   0.0000       2.597805        70.6899 
  83   0.0000       2.597805        70.6899 
  84   0.0000       2.637050        71.7578 
  85   0.0000       2.651155        72.1416 
  86   0.0000       2.801367        76.2291 
  87   0.0000       2.920917        79.4822 
  88   0.0000       2.920917        79.4822 
  89   0.0000       3.014237        82.0215 
  90   0.0000       3.014237        82.0215 
  91   0.0000       3.157550        85.9213 
  92   0.0000       3.248221        88.3886 
  93   0.0000       3.248661        88.4006 
  94   0.0000       3.290469        89.5382 
  95   0.0000       3.290469        89.5382 
  96   0.0000       3.512992        95.5934 
  97   0.0000       3.580746        97.4371 
  98   0.0000       3.580746        97.4371 
  99   0.0000       3.598518        97.9207 
 100   0.0000       3.606370        98.1343 
 101   0.0000       3.636549        98.9555 
 102   0.0000       4.196685       114.1976 
 103   0.0000       4.196685       114.1976 
 104   0.0000       4.399290       119.7108 
 105   0.0000       4.429995       120.5463 
 106   0.0000       4.873597       132.6173 
 107   0.0000       4.873597       132.6173 
 108   0.0000       5.014005       136.4380 
 109   0.0000       5.906928       160.7357 
 110   0.0000       6.104051       166.0997 
 111   0.0000       6.104051       166.0997 
 112   0.0000       6.208881       168.9522 
 113   0.0000       6.209107       168.9584 
 114   0.0000       6.452609       175.5844 
 115   0.0000       6.452609       175.5844 
 116   0.0000       6.524063       177.5288 
 117   0.0000       6.524128       177.5305 
 118   0.0000       6.551356       178.2715 
 119   0.0000       6.856329       186.5702 
 120   0.0000       6.856329       186.5702 
 121   0.0000       7.086504       192.8336 
 122   0.0000       8.776176       238.8119 
 123   0.0000       8.795929       239.3494 
 124   0.0000       8.795929       239.3494 
 125   0.0000       8.808694       239.6968 
 126   0.0000       8.969494       244.0724 
 127   0.0000       8.969494       244.0724 
 128   0.0000       9.319875       253.6067 
 129   0.0000       9.592257       261.0186 
 130   0.0000       9.592257       261.0186 
 131   0.0000       9.593114       261.0419 
 132   0.0000       9.593191       261.0440 
 133   0.0000       9.708218       264.1741 
 134   0.0000       9.730608       264.7833 
 135   0.0000       9.806822       266.8572 
 136   0.0000       9.983481       271.6643 
 137   0.0000       9.983481       271.6643 
 138   0.0000      11.267737       306.6107 

                 SPIN DOWN ORBITALS
  NO   OCC          E(Eh)            E(eV) 
   0   1.0000    -255.247181     -6945.6289 
   1   1.0000     -29.613674      -805.8290 
   2   1.0000     -25.505656      -694.0442 
   3   1.0000     -25.488229      -693.5700 
   4   1.0000     -25.488229      -693.5700 
   5   1.0000     -18.860450      -513.2189 
   6   1.0000      -3.260932       -88.7345 
   7   1.0000      -2.074122       -56.4397 
   8   1.0000      -2.046861       -55.6979 
   9   1.0000      -2.046861       -55.6979 
  10   1.0000      -0.801627       -21.8134 
  11   1.0000      -0.299054        -8.1377 
  12   1.0000      -0.257905        -7.0180 
  13   1.0000      -0.257905        -7.0180 
  14   1.0000      -0.172514        -4.6943 
  15   0.0000      -0.138384        -3.7656 
  16   0.0000      -0.104997        -2.8571 
  17   0.0000      -0.104997        -2.8571 
  18   0.0000      -0.099333        -2.7030 
  19   0.0000      -0.080647        -2.1945 
  20   0.0000       0.002810         0.0765 
  21   0.0000       0.002810         0.0765 
  22   0.0000       0.016548         0.4503 
  23   0.0000       0.018076         0.4919 
  24   0.0000       0.047480         1.2920 
  25   0.0000       0.047480         1.2920 
  26   0.0000       0.071262         1.9391 
  27   0.0000       0.071297         1.9401 
  28   0.0000       0.075048         2.0422 
  29   0.0000       0.075049         2.0422 
  30   0.0000       0.077079         2.0974 
  31   0.0000       0.087043         2.3686 
  32   0.0000       0.127234         3.4622 
  33   0.0000       0.195663         5.3243 
  34   0.0000       0.195663         5.3243 
  35   0.0000       0.200238         5.4487 
  36   0.0000       0.213520         5.8102 
  37   0.0000       0.213521         5.8102 
  38   0.0000       0.254420         6.9231 
  39   0.0000       0.275326         7.4920 
  40   0.0000       0.289986         7.8909 
  41   0.0000       0.298874         8.1328 
  42   0.0000       0.298874         8.1328 
  43   0.0000       0.321082         8.7371 
  44   0.0000       0.490416        13.3449 
  45   0.0000       0.570216        15.5164 
  46   0.0000       0.573281        15.5998 
  47   0.0000       0.596376        16.2282 
  48   0.0000       0.682239        18.5647 
  49   0.0000       0.682239        18.5647 
  50   0.0000       0.720947        19.6180 
  51   0.0000       0.796639        21.6776 
  52   0.0000       0.796639        21.6776 
  53   0.0000       0.844382        22.9768 
  54   0.0000       0.844382        22.9768 
  55   0.0000       0.913634        24.8613 
  56   0.0000       0.913634        24.8613 
  57   0.0000       0.919397        25.0181 
  58   0.0000       0.963697        26.2235 
  59   0.0000       0.971317        26.4309 
  60   0.0000       0.979118        26.6431 
  61   0.0000       0.979118        26.6431 
  62   0.0000       1.078102        29.3367 
  63   0.0000       1.100750        29.9529 
  64   0.0000       1.118733        30.4423 
  65   0.0000       1.136262        30.9193 
  66   0.0000       1.437125        39.1061 
  67   0.0000       1.437125        39.1061 
  68   0.0000       1.620967        44.1087 
  69   0.0000       1.858908        50.5835 
  70   0.0000       1.864229        50.7282 
  71   0.0000       1.864229        50.7282 
  72   0.0000       1.903521        51.7974 
  73   0.0000       1.905503        51.8514 
  74   0.0000       2.034684        55.3666 
  75   0.0000       2.034684        55.3666 
  76   0.0000       2.117827        57.6290 
  77   0.0000       2.120474        57.7010 
  78   0.0000       2.253145        61.3112 
  79   0.0000       2.440401        66.4067 
  80   0.0000       2.440401        66.4067 
  81   0.0000       2.622861        71.3717 
  82   0.0000       2.676538        72.8323 
  83   0.0000       2.676538        72.8323 
  84   0.0000       2.709543        73.7304 
  85   0.0000       2.742572        74.6292 
  86   0.0000       2.864816        77.9556 
  87   0.0000       3.004765        81.7638 
  88   0.0000       3.004765        81.7638 
  89   0.0000       3.069655        83.5296 
  90   0.0000       3.069655        83.5296 
  91   0.0000       3.211131        87.3793 
  92   0.0000       3.319049        90.3159 
  93   0.0000       3.321303        90.3773 
  94   0.0000       3.361901        91.4820 
  95   0.0000       3.361901        91.4820 
  96   0.0000       3.574956        97.2795 
  97   0.0000       3.619853        98.5012 
  98   0.0000       3.619853        98.5012 
  99   0.0000       3.652339        99.3852 
 100   0.0000       3.670993        99.8928 
 101   0.0000       3.687730       100.3482 
 102   0.0000       4.249816       115.6434 
 103   0.0000       4.249816       115.6434 
 104   0.0000       4.488024       122.1253 
 105   0.0000       4.528916       123.2381 
 106   0.0000       4.963730       135.0700 
 107   0.0000       4.963730       135.0700 
 108   0.0000       5.062911       137.7688 
 109   0.0000       5.968024       162.3982 
 110   0.0000       6.132697       166.8792 
 111   0.0000       6.132697       166.8792 
 112   0.0000       6.232913       169.6062 
 113   0.0000       6.232997       169.6085 
 114   0.0000       6.476980       176.2476 
 115   0.0000       6.476980       176.2476 
 116   0.0000       6.568437       178.7362 
 117   0.0000       6.568848       178.7474 
 118   0.0000       6.580017       179.0514 
 119   0.0000       6.886088       187.3800 
 120   0.0000       6.886088       187.3800 
 121   0.0000       7.111958       193.5262 
 122   0.0000       8.929918       242.9954 
 123   0.0000       8.929918       242.9954 
 124   0.0000       8.935267       243.1410 
 125   0.0000       8.967828       244.0270 
 126   0.0000       9.113717       247.9968 
 127   0.0000       9.113717       247.9968 
 128   0.0000       9.446528       257.0531 
 129   0.0000       9.692055       263.7342 
 130   0.0000       9.695193       263.8196 
 131   0.0000       9.703946       264.0578 
 132   0.0000       9.703946       264.0578 
 133   0.0000       9.825351       267.3614 
 134   0.0000       9.833424       267.5811 
 135   0.0000       9.894594       269.2456 
 136   0.0000      10.089743       274.5559 
 137   0.0000      10.089743       274.5559 
 138   0.0000      11.309877       307.7574 

                    ********************************
                    * MULLIKEN POPULATION ANALYSIS *
                    ********************************

--------------------------------------------
MULLIKEN ATOMIC CHARGES AND SPIN POPULATIONS
--------------------------------------------
   0 Fe:    0.560261    3.534040
   1 O :   -0.560261    0.465960
Sum of atomic charges         :   -0.0000000
Sum of atomic spin populations:    4.0000000

-----------------------------------------------------
MULLIKEN REDUCED ORBITAL CHARGES AND SPIN POPULATIONS
-----------------------------------------------------
CHARGE
  0 Fes       :     6.612439  s :     6.612439
      pz      :     4.038371  p :    12.223079
      px      :     4.092354
      py      :     4.092354
      dz2     :     1.055876  d :     6.577497
      dxz     :     1.262402
      dyz     :     1.262402
      dx2y2   :     0.999122
      dxy     :     1.997695
      f0      :     0.006157  f :     0.023877
      f+1     :     0.008648
      f-1     :     0.008648
      f+2     :     0.000134
      f-2     :     0.000195
      f+3     :     0.000047
      f-3     :     0.000047
      g0      :     0.000752  g :     0.002848
      g+1     :     0.001026
      g-1     :     0.001026
      g+2     :     0.000003
      g-2     :     0.000011
      g+3     :     0.000005
      g-3     :     0.000005
      g+4     :     0.000021
      g-4     :     0.000000
  1 O s       :     3.967175  s :     3.967175
      pz      :     1.313443  p :     4.566423
      px      :     1.626490
      py      :     1.626490
      dz2     :     0.004244  d :     0.021878
      dxz     :     0.007887
      dyz     :     0.007887
      dx2y2   :     0.000476
      dxy     :     0.001383
      f0      :     0.001523  f :     0.004785
      f+1     :     0.001141
      f-1     :     0.001141
      f+2     :     0.000265
      f-2     :     0.000716
      f+3     :     0.000000
      f-3     :     0.000000

SPIN
  0 Fes       :     0.533991  s :     0.533991
      pz      :     0.009148  p :     0.127210
      px      :     0.059031
      py      :     0.059031
      dz2     :     0.479498  d :     2.869311
      dxz     :     0.695233
      dyz     :     0.695233
      dx2y2   :     0.999122
      dxy     :     0.000226
      f0      :    -0.000653  f :     0.004065
      f+1     :     0.002252
      f-1     :     0.002252
      f+2     :     0.000134
      f-2     :     0.000135
      f+3     :    -0.000027
      f-3     :    -0.000027
      g0      :    -0.000290  g :    -0.000537
      g+1     :    -0.000127
      g-1     :    -0.000127
      g+2     :     0.000003
      g-2     :     0.000009
      g+3     :    -0.000001
      g-3     :    -0.000001
      g+4     :    -0.000003
      g-4     :    -0.000000
  1 O s       :    -0.007919  s :    -0.007919
      pz      :    -0.015150  p :     0.475746
      px      :     0.245448
      py      :     0.245448
      dz2     :     0.001008  d :    -0.001640
      dxz     :    -0.001428
      dyz     :    -0.001428
      dx2y2   :     0.000476
      dxy     :    -0.000268
      f0      :     0.000371  f :    -0.000227
      f+1     :    -0.000381
      f-1     :    -0.000381
      f+2     :     0.000265
      f-2     :    -0.000101
      f+3     :    -0.000000
      f-3     :    -0.000000


                     *******************************
                     * LOEWDIN POPULATION ANALYSIS *
                     *******************************

-------------------------------------------
LOEWDIN ATOMIC CHARGES AND SPIN POPULATIONS
-------------------------------------------
   0 Fe:    0.578231    3.469225
   1 O :   -0.578231    0.530775

----------------------------------------------------
LOEWDIN REDUCED ORBITAL CHARGES AND SPIN POPULATIONS
----------------------------------------------------
CHARGE
  0 Fes       :     6.293698  s :     6.293698
      pz      :     4.126181  p :    12.283803
      px      :     4.078811
      py      :     4.078811
      dz2     :     1.162316  d :     6.618551
      dxz     :     1.248549
      dyz     :     1.248549
      dx2y2   :     0.987417
      dxy     :     1.971719
      f0      :     0.083205  f :     0.204281
      f+1     :     0.059364
      f-1     :     0.059364
      f+2     :     0.000792
      f-2     :     0.001460
      f+3     :     0.000047
      f-3     :     0.000047
      g0      :     0.009305  g :     0.021435
      g+1     :     0.005968
      g-1     :     0.005968
      g+2     :     0.000054
      g-2     :     0.000110
      g+3     :     0.000005
      g-3     :     0.000005
      g+4     :     0.000021
      g-4     :     0.000000
  1 O s       :     3.560098  s :     3.560098
      pz      :     1.526699  p :     4.529206
      px      :     1.501254
      py      :     1.501254
      dz2     :     0.160278  d :     0.309815
      dxz     :     0.064756
      dyz     :     0.064756
      dx2y2   :     0.005901
      dxy     :     0.014125
      f0      :     0.078199  f :     0.179112
      f+1     :     0.041245
      f-1     :     0.041245
      f+2     :     0.005837
      f-2     :     0.012586
      f+3     :     0.000000
      f-3     :     0.000000

SPIN
  0 Fes       :     0.444813  s :     0.444813
      pz      :     0.014643  p :     0.208291
      px      :     0.096824
      py      :     0.096824
      dz2     :     0.466277  d :     2.773285
      dxz     :     0.659617
      dyz     :     0.659617
      dx2y2   :     0.987417
      dxy     :     0.000357
      f0      :     0.000563  f :     0.039449
      f+1     :     0.018886
      f-1     :     0.018886
      f+2     :     0.000792
      f-2     :     0.000377
      f+3     :    -0.000027
      f-3     :    -0.000027
      g0      :    -0.000280  g :     0.003387
      g+1     :     0.001811
      g-1     :     0.001811
      g+2     :     0.000054
      g-2     :    -0.000003
      g+3     :    -0.000001
      g-3     :    -0.000001
      g+4     :    -0.000003
      g-4     :    -0.000000
  1 O s       :     0.027324  s :     0.027324
      pz      :     0.038398  p :     0.422530
      px      :     0.192066
      py      :     0.192066
      dz2     :     0.004080  d :     0.043717
      dxz     :     0.017153
      dyz     :     0.017153
      dx2y2   :     0.005901
      dxy     :    -0.000570
      f0      :     0.004184  f :     0.037203
      f+1     :     0.013671
      f-1     :     0.013671
      f+2     :     0.005837
      f-2     :    -0.000161
      f+3     :    -0.000000
      f-3     :    -0.000000


                      *****************************
                      * MAYER POPULATION ANALYSIS *
                      *****************************

  NA   - Mulliken gross atomic population
  ZA   - Total nuclear charge
  QA   - Mulliken gross atomic charge
  VA   - Mayer's total valence
  BVA  - Mayer's bonded valence
  FA   - Mayer's free valence

  ATOM       NA         ZA         QA         VA         BVA        FA
  0 Fe    25.4397    26.0000     0.5603     5.0735     2.0715     3.0020
  1 O      8.5603     8.0000    -0.5603     2.1978     2.0715     0.1263

  Mayer bond orders larger than 0.100000
B(  0-Fe,  1-O ) :   2.0715 

-------
TIMINGS
-------

Total SCF time: 0 days 0 hours 0 min 5 sec 

Total time                  ....       5.169 sec
Sum of individual times     ....       4.999 sec  ( 96.7%)

Fock matrix formation       ....       4.542 sec  ( 87.9%)
  Split-RI-J                ....       3.069 sec  ( 67.6% of F)
  XC integration            ....       1.353 sec  ( 29.8% of F)
    Basis function eval.    ....       0.166 sec  ( 12.3% of XC)
    Density eval.           ....       0.156 sec  ( 11.5% of XC)
    XC-Functional eval.     ....       0.042 sec  (  3.1% of XC)
    XC-Potential eval.      ....       0.459 sec  ( 33.9% of XC)
Diagonalization             ....       0.120 sec  (  2.3%)
Density matrix formation    ....       0.015 sec  (  0.3%)
Population analysis         ....       0.007 sec  (  0.1%)
Initial guess               ....       0.114 sec  (  2.2%)
Orbital Transformation      ....       0.000 sec  (  0.0%)
Orbital Orthonormalization  ....       0.000 sec  (  0.0%)
DIIS solution               ....       0.046 sec  (  0.9%)
Grid generation             ....       0.156 sec  (  3.0%)


-------------------------------------------------------------------------------
                          DFT DISPERSION CORRECTION                            
                                                                               
                              DFTD3 V3.1  Rev 1                                
                          USING Becke-Johnson damping                          
-------------------------------------------------------------------------------
The TPSS functional is recognized
Active option DFTDOPT                   ...         4   

molecular C6(AA) [au] = 333.870522 


            DFT-D V3
 parameters
 s6 scaling factor         :     1.0000 
 a1 scaling factor         :     0.4535 
 s8 scaling factor         :     1.9435 
 a2 scaling factor         :     4.4752 
 ad hoc parameters k1-k3   :    16.0000     1.3333    -4.0000 

 Edisp/kcal,au: -0.442891941841  -0.000705793160 
 E6   /kcal   :  -0.175661117 
 E8   /kcal   :  -0.267230825 
 % E8         :  60.337703140 

-------------------------   ----------------
Dispersion correction           -0.000705793
-------------------------   ----------------


-------------------------   --------------------
FINAL SINGLE POINT ENERGY     -1339.019867156097
-------------------------   --------------------


                            ***************************************
                            *     ORCA property calculations      *
                            ***************************************

                                    ---------------------
                                    Active property flags
                                    ---------------------
   (+) Dipole Moment


------------------------------------------------------------------------------
                       ORCA ELECTRIC PROPERTIES CALCULATION
------------------------------------------------------------------------------

Dipole Moment Calculation                       ... on
Quadrupole Moment Calculation                   ... off
Polarizability Calculation                      ... off
GBWName                                         ... 35_FeO.gbw
Electron density file                           ... 35_FeO.scfp
The origin for moment calculation is the CENTER OF MASS  = ( 0.000000,  0.000000  1.047144)

-------------
DIPOLE MOMENT
-------------
                                X             Y             Z
Electronic contribution:      0.00000       0.00000      -3.04735
Nuclear contribution   :      0.00000       0.00000       1.30353
                        -----------------------------------------
Total Dipole Moment    :      0.00000       0.00000      -1.74383
                        -----------------------------------------
Magnitude (a.u.)       :      1.74383
Magnitude (Debye)      :      4.43246



--------------------
Rotational spectrum 
--------------------
 
Rotational constants in cm-1:     0.000000     0.524387     0.524387 
Rotational constants in MHz :     0.000000 15720.731712 15720.731712 

 Dipole components along the rotational axes: 
x,y,z [a.u.] :    -1.743827     0.000000     0.000000 
x,y,z [Debye]:    -4.432456     0.000000     0.000000 

 

Timings for individual modules:

Sum of individual times         ...        8.792 sec (=   0.147 min)
GTO integral calculation        ...        3.283 sec (=   0.055 min)  37.3 %
SCF iterations                  ...        5.509 sec (=   0.092 min)  62.7 %
                             ****ORCA TERMINATED NORMALLY****
TOTAL RUN TIME: 0 days 0 hours 0 minutes 9 seconds 372 msec
