
                                 *****************
                                 * O   R   C   A *
                                 *****************

           --- An Ab Initio, DFT and Semiempirical electronic structure package ---

                  #######################################################
                  #                        -***-                        #
                  #          Department of theory and spectroscopy      #
                  #               Directorship: Frank Neese             #
                  #        Max Planck Institute fuer Kohlenforschung    #
                  #                Kaiser Wilhelm Platz 1               #
                  #                 D-45470 Muelheim/Ruhr               #
                  #                      Germany                        #
                  #                                                     #
                  #                  All rights reserved                #
                  #                        -***-                        #
                  #######################################################


                         Program Version 4.2.0 -  RELEASE  -


 With contributions from (in alphabetic order):
   Daniel Aravena         : Magnetic Suceptibility
   Michael Atanasov       : Ab Initio Ligand Field Theory (pilot matlab implementation)
   Alexander A. Auer      : GIAO ZORA, VPT2
   Ute Becker             : Parallelization
   Giovanni Bistoni       : ED, misc. LED, open-shell LED, HFLED
   Martin Brehm           : Molecular dynamics
   Dmytro Bykov           : SCF Hessian
   Vijay G. Chilkuri      : MRCI spin determinant printing, contributions to CSF-ICE
   Dipayan Datta          : RHF DLPNO-CCSD density
   Achintya Kumar Dutta   : EOM-CC, STEOM-CC
   Dmitry Ganyushin       : Spin-Orbit,Spin-Spin,Magnetic field MRCI
   Miquel Garcia          : C-PCM Hessian, Gaussian charge scheme
   Yang Guo               : DLPNO-NEVPT2, CIM, IAO-localization
   Andreas Hansen         : Spin unrestricted coupled pair/coupled cluster methods
   Benjamin Helmich-Paris : CASSCF linear response (MC-RPA)
   Lee Huntington         : MR-EOM, pCC
   Robert Izsak           : Overlap fitted RIJCOSX, COSX-SCS-MP3, EOM
   Christian Kollmar      : KDIIS, OOCD, Brueckner-CCSD(T), CCSD density
   Simone Kossmann        : Meta GGA functionals, TD-DFT gradient, OOMP2, MP2 Hessian
   Martin Krupicka        : AUTO-CI
   Lucas Lang             : DCDCAS
   Dagmar Lenk            : GEPOL surface, SMD
   Dimitrios Liakos       : Extrapolation schemes; Compound Job, initial MDCI parallelization
   Dimitrios Manganas     : Further ROCIS development; embedding schemes
   Dimitrios Pantazis     : SARC Basis sets
   Taras Petrenko         : DFT Hessian,TD-DFT gradient, ASA, ECA, R-Raman, ABS, FL, XAS/XES, NRVS
   Peter Pinski           : DLPNO-MP2, DLPNO-MP2 Gradient
   Christoph Reimann      : Effective Core Potentials
   Marius Retegan         : Local ZFS, SOC
   Christoph Riplinger    : Optimizer, TS searches, QM/MM, DLPNO-CCSD(T), (RO)-DLPNO pert. Triples
   Tobias Risthaus        : Range-separated hybrids, TD-DFT gradient, RPA, STAB
   Michael Roemelt        : Original ROCIS implementation
   Masaaki Saitow         : Open-shell DLPNO-CCSD energy and density
   Barbara Sandhoefer     : DKH picture change effects
   Avijit Sen             : IP-ROCIS
   Kantharuban Sivalingam : CASSCF convergence, NEVPT2, FIC-MRCI
   Bernardo de Souza      : ESD, SOC TD-DFT
   Georgi Stoychev        : AutoAux, RI-MP2 NMR
   Willem Van den Heuvel  : Paramagnetic NMR
   Boris Wezisla          : Elementary symmetry handling
   Frank Wennmohs         : Technical directorship


 We gratefully acknowledge several colleagues who have allowed us to
 interface, adapt or use parts of their codes:
   Stefan Grimme, W. Hujo, H. Kruse,             : VdW corrections, initial TS optimization,
                  C. Bannwarth                     DFT functionals, gCP, sTDA/sTD-DF
   Ed Valeev, F. Pavosevic, A. Kumar             : LibInt (2-el integral package), F12 methods
   Garnet Chan, S. Sharma, J. Yang, R. Olivares  : DMRG
   Ulf Ekstrom                                   : XCFun DFT Library
   Mihaly Kallay                                 : mrcc  (arbitrary order and MRCC methods)
   Andreas Klamt, Michael Diedenhofen            : otool_cosmo (COSMO solvation model)
   Jiri Pittner, Ondrej Demel                    : Mk-CCSD
   Frank Weinhold                                : gennbo (NPA and NBO analysis)
   Christopher J. Cramer and Donald G. Truhlar   : smd solvation model
   Lars Goerigk                                  : TD-DFT with DH, B97 family of functionals
   V. Asgeirsson, H. Jonsson                     : NEB implementation
   FAccTs GmbH                                   : IRC, NEB, NEB-TS, Multilevel, MM, QM/MM, CI optimization
   S Lehtola, MJT Oliveira, MAL Marques          : LibXC Library


 Your calculation uses the libint2 library for the computation of 2-el integrals
 For citations please refer to: http://libint.valeyev.net

 Your ORCA version has been built with support for libXC version: 4.2.3
 For citations please refer to: https://tddft.org/programs/libxc/

 This ORCA versions uses:
   CBLAS   interface :  Fast vector & matrix operations
   LAPACKE interface :  Fast linear algebra routines
   SCALAPACK package :  Parallel linear algebra routines


Your calculation utilizes the atom-pairwise dispersion correction
with the Becke-Johnson damping scheme (D3BJ)
Cite in your paper:
S.Grimme, S.Ehrlich, L.Goerigk, J Comput Chem, (2011), 32, 1456–1465 
S.Grimme, J.Antony, S.Ehrlich and H.Krieg, J.Chem.Phys., 132, (2010), 154104 
   

----- Orbital basis set information -----
Your calculation utilizes the basis: aug-cc-pVTZ 
    H, B-Ne : Obtained from the ccRepo (grant-hill.group.shef.ac.uk/ccrepo) Feb. 2017
              R. A. Kendall, T. H. Dunning, Jr., R. J. Harrison, J. Chem. Phys. 96, 6796 (1992)
         He : Obtained from the ccRepo (grant-hill.group.shef.ac.uk/ccrepo) Feb. 2017
              D. E. Woon, T. H. Dunning, Jr., J. Chem. Phys. 100, 2975 (1994)
  Li-Be, Na : Obtained from the ccRepo (grant-hill.group.shef.ac.uk/ccrepo) Feb. 2017
              B. P. Prascher, D. E. Woon, K. A. Peterson, T. H. Dunning, Jr., A. K. Wilson, Theor. Chem. Acc. 128, 69 (2011)
         Mg : Obtained from the Peterson Research Group Website (tyr0.chem.wsu.edu/~kipeters) Feb. 2017
              B. P. Prascher, D. E. Woon, K. A. Peterson, T. H. Dunning, Jr., A. K. Wilson, Theor. Chem. Acc. 128, 69 (2011)
      Al-Ar : Obtained from the ccRepo (grant-hill.group.shef.ac.uk/ccrepo) Feb. 2017
              D. E. Woon, T. H. Dunning, Jr., J. Chem. Phys. 98, 1358 (1993)
      Sc-Zn : Obtained from the ccRepo (grant-hill.group.shef.ac.uk/ccrepo) Feb. 2017
              N. B. Balabanov, K. A. Peterson, J. Chem. Phys. 123, 064107 (2005)
              N. B. Balabanov, K. A. Peterson, J. Chem. Phys. 125, 074110 (2006)
      Ga-Kr : Obtained from the ccRepo (grant-hill.group.shef.ac.uk/ccrepo) Feb. 2017
              A. K. Wilson, D. E. Woon, K. A. Peterson, T. H. Dunning, Jr., J. Chem. Phys. 110, 7667 (1999)
     Ag, Au : Obtained from the Peterson Research Group Website (tyr0.chem.wsu.edu/~kipeters) Feb. 2017
              K. A. Peterson, C. Puzzarini, Theor. Chem. Acc. 114, 283 (2005)

----- AuxJ basis set information -----
Your calculation utilizes the auxiliary basis: def2/J
   F. Weigend, Phys. Chem. Chem. Phys. 8, 1057 (2006).

================================================================================
                                        WARNINGS
                       Please study these warnings very carefully!
================================================================================


WARNING: your system is open-shell and RHF/RKS was chosen
  ===> : WILL SWITCH to UHF/UKS


INFO   : the flag for use of LIBINT has been found!

================================================================================
                                       INPUT FILE
================================================================================
NAME = 38_CoF.in
|  1> #
|  2> # 38_CoF tpss/aug-cc-pvtz
|  3> #
|  4> ! tpss d3bj aug-cc-pvtz def2/j grid4 nofinalgrid
|  5> 
|  6> *xyz 0 3
|  7>   Co  0.00000000000000      0.00000000000000      0.12338928235446
|  8>   F   0.00000000000000      0.00000000000000      1.87661071764554
|  9> *
| 10> 
| 11> %pal
| 12> nprocs 24
| 13> end
| 14> 
| 15> 
| 16>                          ****END OF INPUT****
================================================================================

                       ****************************
                       * Single Point Calculation *
                       ****************************

---------------------------------
CARTESIAN COORDINATES (ANGSTROEM)
---------------------------------
  Co     0.000000    0.000000    0.123389
  F      0.000000    0.000000    1.876611

----------------------------
CARTESIAN COORDINATES (A.U.)
----------------------------
  NO LB      ZA    FRAG     MASS         X           Y           Z
   0 Co   27.0000    0    58.930    0.000000    0.000000    0.233172
   1 F     9.0000    0    18.998    0.000000    0.000000    3.546280

--------------------------------
INTERNAL COORDINATES (ANGSTROEM)
--------------------------------
 Co     0   0   0     0.000000000000     0.00000000     0.00000000
 F      1   0   0     1.753221435291     0.00000000     0.00000000

---------------------------
INTERNAL COORDINATES (A.U.)
---------------------------
 Co     0   0   0     0.000000000000     0.00000000     0.00000000
 F      1   0   0     3.313108364820     0.00000000     0.00000000

---------------------
BASIS SET INFORMATION
---------------------
There are 2 groups of distinct atoms

 Group   1 Type Co  : 116s77p23d3f2g contracted to 8s7p5d3f2g pattern {19191919191911/151515151511/77711/111/11}
 Group   2 Type F   : 19s6p3d2f contracted to 5s4p3d2f pattern {88111/3111/111/11}

Atom   0Co   basis set group =>   1
Atom   1F    basis set group =>   2
---------------------------------
AUXILIARY/J BASIS SET INFORMATION
---------------------------------
There are 2 groups of distinct atoms

 Group   1 Type Co  : 19s5p5d3f3g contracted to 8s5p5d2f3g pattern {121111111/11111/11111/21/111}
 Group   2 Type F   : 12s5p4d2f1g contracted to 6s4p3d1f1g pattern {711111/2111/211/2/1}

Atom   0Co   basis set group =>   1
Atom   1F    basis set group =>   2


           ************************************************************
           *        Program running with 24 parallel MPI-processes    *
           *              working on a common directory               *
           ************************************************************
------------------------------------------------------------------------------
                           ORCA GTO INTEGRAL CALCULATION
                           -- RI-GTO INTEGRALS CHOSEN --
------------------------------------------------------------------------------

                         BASIS SET STATISTICS AND STARTUP INFO

Gaussian basis set:
 # of primitive gaussian shells          ...  251
 # of primitive gaussian functions       ...  567
 # of contracted shells                  ...   39
 # of contracted basis functions         ...  139
 Highest angular momentum                ...    4
 Maximum contraction depth               ...   19
Auxiliary gaussian basis set:
 # of primitive gaussian shells          ...   59
 # of primitive gaussian functions       ...  177
 # of contracted shells                  ...   38
 # of contracted aux-basis functions     ...  138
 Highest angular momentum                ...    4
 Maximum contraction depth               ...   12
Ratio of auxiliary to basis functions    ...  0.99
Integral package used                  ... LIBINT
 One Electron integrals                  ... done
 Ordering auxiliary basis shells         ... done
 Integral threshhold             Thresh  ...  1.000e-10
 Primitive cut-off               TCut    ...  1.000e-11
 Pre-screening matrix                    ... done
 Shell pair data                         ... 
 Ordering of the shell pairs             ... done (   0.000 sec) 780 of 780 pairs
 Determination of significant pairs      ... done (   0.000 sec)
 Creation of shell pair data             ... done (   0.001 sec)
 Storage of shell pair data              ... done (   0.146 sec)
 Shell pair data done in (   0.147 sec)
 Computing two index integrals           ... done
 Cholesky decomposition of the V-matrix  ... done


Timings:
 Total evaluation time                   ...   2.740 sec (  0.046 min)
 One electron matrix time                ...   0.043 sec (  0.001 min) =  1.6%
 Schwartz matrix evaluation time         ...   2.514 sec (  0.042 min) = 91.7%
 Two index repulsion integral time       ...   0.002 sec (  0.000 min) =  0.1%
 Cholesky decomposition of V             ...   0.006 sec (  0.000 min) =  0.2%
 Three index repulsion integral time     ...   0.000 sec (  0.000 min) =  0.0%



           ************************************************************
           *        Program running with 24 parallel MPI-processes    *
           *              working on a common directory               *
           ************************************************************
-------------------------------------------------------------------------------
                                 ORCA SCF
-------------------------------------------------------------------------------

------------
SCF SETTINGS
------------
Hamiltonian:
 Density Functional     Method          .... DFT(GTOs)
 Exchange Functional    Exchange        .... TPSS
 Correlation Functional Correlation     .... TPSS
 LDA part of GGA corr.  LDAOpt          .... PW91-LDA
 Gradients option       PostSCFGGA      .... off
   Density functional embedding theory  .... OFF
   NL short-range parameter             ....  5.000000
 RI-approximation to the Coulomb term is turned on
   Number of auxiliary basis functions  .... 138


General Settings:
 Integral files         IntName         .... 38_CoF
 Hartree-Fock type      HFTyp           .... UHF
 Total Charge           Charge          ....    0
 Multiplicity           Mult            ....    3
 Number of Electrons    NEL             ....   36
 Basis Dimension        Dim             ....  139
 Nuclear Repulsion      ENuc            ....     73.3450202173 Eh

Convergence Acceleration:
 DIIS                   CNVDIIS         .... on
   Start iteration      DIISMaxIt       ....    12
   Startup error        DIISStart       ....  0.200000
   # of expansion vecs  DIISMaxEq       ....     5
   Bias factor          DIISBfac        ....   1.050
   Max. coefficient     DIISMaxC        ....  10.000
 Newton-Raphson         CNVNR           .... off
 SOSCF                  CNVSOSCF        .... off
 Level Shifting         CNVShift        .... on
   Level shift para.    LevelShift      ....    0.2500
   Turn off err/grad.   ShiftErr        ....    0.0010
 Zerner damping         CNVZerner       .... off
 Static damping         CNVDamp         .... on
   Fraction old density DampFac         ....    0.7000
   Max. Damping (<1)    DampMax         ....    0.9800
   Min. Damping (>=0)   DampMin         ....    0.0000
   Turn off err/grad.   DampErr         ....    0.1000
 Fernandez-Rico         CNVRico         .... off

SCF Procedure:
 Maximum # iterations   MaxIter         ....   125
 SCF integral mode      SCFMode         .... Direct
   Integral package                     .... LIBINT
 Reset frequency        DirectResetFreq ....    20
 Integral Threshold     Thresh          ....  1.000e-10 Eh
 Primitive CutOff       TCut            ....  1.000e-11 Eh

Convergence Tolerance:
 Convergence Check Mode ConvCheckMode   .... Total+1el-Energy
 Convergence forced     ConvForced      .... 0
 Energy Change          TolE            ....  1.000e-06 Eh
 1-El. energy change                    ....  1.000e-03 Eh
 DIIS Error             TolErr          ....  1.000e-06


Diagonalization of the overlap matrix:
Smallest eigenvalue                        ... 1.026e-04
Time for diagonalization                   ...    0.004 sec
Threshold for overlap eigenvalues          ... 1.000e-08
Number of eigenvalues below threshold      ... 0
Time for construction of square roots      ...    0.002 sec
Total time needed                          ...    0.006 sec

-------------------
DFT GRID GENERATION
-------------------

General Integration Accuracy     IntAcc      ...  4.670
Radial Grid Type                 RadialGrid  ... Gauss-Chebyshev
Angular Grid (max. acc.)         AngularGrid ... Lebedev-302
Angular grid pruning method      GridPruning ... 3 (G Style)
Weight generation scheme         WeightScheme... Becke
Basis function cutoff            BFCut       ...    1.0000e-10
Integration weight cutoff        WCut        ...    1.0000e-14
Grids for H and He will be reduced by one unit

# of grid points (after initial pruning)     ...  15912 (   0.0 sec)
# of grid points (after weights+screening)   ...  15863 (   0.0 sec)
nearest neighbour list constructed           ...    0.0 sec
Grid point re-assignment to atoms done       ...    0.0 sec
Grid point division into batches done        ...    0.1 sec
Reduced shell lists constructed in    0.1 sec

Total number of grid points                  ...    15863
Total number of batches                      ...      249
Average number of points per batch           ...       63
Average number of grid points per atom       ...     7932
Average number of shells per batch           ...    13.92 (35.68%)
Average number of basis functions per batch  ...    32.25 (23.20%)
Average number of large shells per batch     ...     7.08 (50.90%)
Average number of large basis fcns per batch ...    17.75 (55.04%)
Maximum spatial batch extension              ...  28.57, 31.41, 18.44 au
Average spatial batch extension              ...   0.89,  0.95,  0.67 au

Time for grid setup =    0.148 sec

------------------------------
INITIAL GUESS: MODEL POTENTIAL
------------------------------
Loading Hartree-Fock densities                     ... done
Calculating cut-offs                               ... done
Setting up the integral package                    ... done
Initializing the effective Hamiltonian             ... done
Starting the Coulomb interaction                   ... done (   0.0 sec)
Reading the grid                                   ... done
Mapping shells                                     ... done
Starting the XC term evaluation                    ... done (   0.0 sec)
  promolecular density results
     # of electrons  =     36.000019389
     EX              =    -67.694585273
     EC              =     -1.515145324
     EX+EC           =    -69.209730598
Transforming the Hamiltonian                       ... done (   0.0 sec)
Diagonalizing the Hamiltonian                      ... done (   0.0 sec)
Back transforming the eigenvectors                 ... done (   0.0 sec)
Now organizing SCF variables                       ... done
                      ------------------
                      INITIAL GUESS DONE (   0.3 sec)
                      ------------------
--------------
SCF ITERATIONS
--------------
ITER       Energy         Delta-E        Max-DP      RMS-DP      [F,P]     Damp
               ***  Starting incremental Fock matrix formation  ***
  0  -1482.5848118202   0.000000000000 0.04950157  0.00118942  0.3073027 0.7000
  1  -1482.6452075608  -0.060395740565 0.03803018  0.00056230  0.0649626 0.7000
                               ***Turning on DIIS***
  2  -1482.6609900265  -0.015782465668 0.15112176  0.00132885  0.0443800 0.0000
  3  -1482.7063945298  -0.045404503313 0.05175393  0.00064701  0.0692871 0.0000
  4  -1482.7145549907  -0.008160460897 0.03910840  0.00036460  0.0479994 0.0000
  5  -1482.7185058704  -0.003950879671 0.04091466  0.00034839  0.0151593 0.0000
  6  -1482.7210989930  -0.002593122680 0.04601739  0.00036327  0.0125927 0.0000
  7  -1482.7236152616  -0.002516268611 0.05250141  0.00040161  0.0124922 0.0000
  8  -1482.7261637740  -0.002548512385 0.04830837  0.00034386  0.0120320 0.0000
  9  -1482.7281260140  -0.001962239955 0.04452981  0.00030903  0.0106162 0.0000
 10  -1482.7297630770  -0.001637063053 0.04289759  0.00029702  0.0096501 0.0000
 11  -1482.7312063566  -0.001443279547 0.04743457  0.00034489  0.0089352 0.0000
 12  -1482.7323958101  -0.001189453564 0.03618134  0.00024507  0.0126015 0.0000
 13  -1482.7334303592  -0.001034549008 0.02945271  0.00019784  0.0070211 0.0000
 14  -1482.7340676339  -0.000637274703 0.02735970  0.00018520  0.0059651 0.0000
 15  -1482.7345743923  -0.000506758406 0.02596854  0.00018576  0.0053250 0.0000
 16  -1482.7348718789  -0.000297486620 0.01760069  0.00012865  0.0121076 0.0000
 17  -1482.7352349102  -0.000363031293 0.01814045  0.00013435  0.0036995 0.0000
 18  -1482.7354151064  -0.000180196226 0.01368362  0.00009437  0.0072908 0.0000
 19  -1482.7355937641  -0.000178657711 0.01124679  0.00007716  0.0040143 0.0000
               *** Restarting incremental Fock matrix formation ***
                                   *** Resetting DIIS ***
 20  -1482.7357066854  -0.000112921236 0.00900674  0.00006318  0.0022521 0.0000
 21  -1482.7357805608  -0.000073875432 0.00729444  0.00005179  0.0023942 0.0000
 22  -1482.7358401089  -0.000059548082 0.00604426  0.00004386  0.0016384 0.0000
 23  -1482.7358845164  -0.000044407490 0.00554735  0.00004268  0.0014322 0.0000
 24  -1482.7359220271  -0.000037510760 0.00508833  0.00004296  0.0013926 0.0000
 25  -1482.7359557863  -0.000033759139 0.00432863  0.00003422  0.0019113 0.0000
 26  -1482.7359822117  -0.000026425421 0.02570819  0.00021408  0.0009311 0.0000
 27  -1482.7360533363  -0.000071124660 0.00076693  0.00000977  0.0061037 0.0000
 28  -1482.7360708357  -0.000017499344 0.00067891  0.00000642  0.0043260 0.0000
 29  -1482.7360779201  -0.000007084452 0.00036486  0.00000683  0.0035825 0.0000
 30  -1482.7360721398   0.000005780301 0.00027264  0.00000521  0.0043371 0.0000
 31  -1482.7360649634   0.000007176411 0.00233224  0.00003025  0.0050804 0.0000
 32  -1482.7360944832  -0.000029519753 0.00597600  0.00006202  0.0007808 0.0000
 33  -1482.7361072357  -0.000012752527 0.00029776  0.00000451  0.0017772 0.0000
 34  -1482.7361101451  -0.000002909411 0.00305745  0.00003251  0.0007170 0.0000
 35  -1482.7361132094  -0.000003064258 0.00050728  0.00000630  0.0014386 0.0000
 36  -1482.7361159066  -0.000002697235 0.00204252  0.00002132  0.0007064 0.0000
 37  -1482.7361198075  -0.000003900931 0.00285592  0.00003386  0.0002269 0.0000
 38  -1482.7361233050  -0.000003497511 0.00322057  0.00004023  0.0004068 0.0000
 39  -1482.7361258158  -0.000002510724 0.00069224  0.00000790  0.0000912 0.0000
               *** Restarting incremental Fock matrix formation ***
                                   *** Resetting DIIS ***
 40  -1482.7361253557   0.000000460069 0.00110970  0.00001348  0.0003008 0.0000
 41  -1482.7361248961   0.000000459572 0.00018734  0.00000307  0.0013721 0.0000
 42  -1482.7361255475  -0.000000651396 0.00084966  0.00000940  0.0005348 0.0000
 43  -1482.7361252125   0.000000335061 0.00031569  0.00000298  0.0005661 0.0000
                 **** Energy Check signals convergence ****

               *****************************************************
               *                     SUCCESS                       *
               *           SCF CONVERGED AFTER  44 CYCLES          *
               *****************************************************


----------------
TOTAL SCF ENERGY
----------------

Total Energy       :        -1482.73612593 Eh          -40347.30120 eV

Components:
Nuclear Repulsion  :           73.34502022 Eh            1995.81947 eV
Electronic Energy  :        -1556.08114615 Eh          -42343.12067 eV
One Electron Energy:        -2203.02717067 Eh          -59947.41698 eV
Two Electron Energy:          646.94602452 Eh           17604.29631 eV

Virial components:
Potential Energy   :        -2963.04384826 Eh          -80628.52219 eV
Kinetic Energy     :         1480.30772232 Eh           40281.22098 eV
Virial Ratio       :            2.00164047


DFT components:
N(Alpha)           :       19.000016771689 electrons
N(Beta)            :       17.000015930267 electrons
N(Total)           :       36.000032701956 electrons
E(X)               :      -68.356737206047 Eh       
E(C)               :       -1.527163110329 Eh       
E(XC)              :      -69.883900316376 Eh       
DFET-embed. en.    :        0.000000000000 Eh       

---------------
SCF CONVERGENCE
---------------

  Last Energy change         ...   -7.2059e-07  Tolerance :   1.0000e-06
  Last MAX-Density change    ...    3.2439e-04  Tolerance :   1.0000e-05
  Last RMS-Density change    ...    3.6884e-06  Tolerance :   1.0000e-06
  Last DIIS Error            ...    1.7631e-04  Tolerance :   1.0000e-06

             **** THE GBW FILE WAS UPDATED (38_CoF.gbw) ****
             **** DENSITY FILE WAS UPDATED (38_CoF.scfp) ****
             **** ENERGY FILE WAS UPDATED (38_CoF.en.tmp) ****
----------------------
UHF SPIN CONTAMINATION
----------------------

Warning: in a DFT calculation there is little theoretical justification to 
         calculate <S**2> as in Hartree-Fock theory. We will do it anyways
         but you should keep in mind that the values have only limited relevance

Expectation value of <S**2>     :     2.034542
Ideal value S*(S+1) for S=1.0   :     2.000000
Deviation                       :     0.034542

             **** THE GBW FILE WAS UPDATED (38_CoF.gbw) ****
             **** DENSITY FILE WAS UPDATED (38_CoF.scfp) ****
----------------
ORBITAL ENERGIES
----------------
                 SPIN UP ORBITALS
  NO   OCC          E(Eh)            E(eV) 
   0   1.0000    -276.649809     -7528.0240 
   1   1.0000     -32.432440      -882.5315 
   2   1.0000     -28.090524      -764.3820 
   3   1.0000     -28.088958      -764.3394 
   4   1.0000     -28.082737      -764.1701 
   5   1.0000     -24.340573      -662.3407 
   6   1.0000      -3.619974       -98.5045 
   7   1.0000      -2.331514       -63.4437 
   8   1.0000      -2.325504       -63.2802 
   9   1.0000      -2.312220       -62.9187 
  10   1.0000      -1.013030       -27.5659 
  11   1.0000      -0.356677        -9.7057 
  12   1.0000      -0.324163        -8.8209 
  13   1.0000      -0.313002        -8.5172 
  14   1.0000      -0.248145        -6.7524 
  15   1.0000      -0.236092        -6.4244 
  16   1.0000      -0.213811        -5.8181 
  17   1.0000      -0.203287        -5.5317 
  18   1.0000      -0.200909        -5.4670 
  19   0.0000      -0.137105        -3.7308 
  20   0.0000      -0.022638        -0.6160 
  21   0.0000      -0.021040        -0.5725 
  22   0.0000       0.006556         0.1784 
  23   0.0000       0.012095         0.3291 
  24   0.0000       0.039519         1.0754 
  25   0.0000       0.040574         1.1041 
  26   0.0000       0.064059         1.7431 
  27   0.0000       0.069864         1.9011 
  28   0.0000       0.069893         1.9019 
  29   0.0000       0.073864         2.0099 
  30   0.0000       0.074653         2.0314 
  31   0.0000       0.087135         2.3711 
  32   0.0000       0.114985         3.1289 
  33   0.0000       0.191224         5.2035 
  34   0.0000       0.194241         5.2856 
  35   0.0000       0.216066         5.8795 
  36   0.0000       0.244821         6.6619 
  37   0.0000       0.245014         6.6672 
  38   0.0000       0.253055         6.8860 
  39   0.0000       0.302080         8.2200 
  40   0.0000       0.303251         8.2519 
  41   0.0000       0.323493         8.8027 
  42   0.0000       0.323528         8.8036 
  43   0.0000       0.361839         9.8461 
  44   0.0000       0.479381        13.0446 
  45   0.0000       0.593455        16.1487 
  46   0.0000       0.734980        19.9998 
  47   0.0000       0.735187        20.0055 
  48   0.0000       0.779715        21.2171 
  49   0.0000       0.783472        21.3194 
  50   0.0000       0.858826        23.3699 
  51   0.0000       0.909358        24.7449 
  52   0.0000       0.910328        24.7713 
  53   0.0000       0.979387        26.6505 
  54   0.0000       0.979497        26.6535 
  55   0.0000       0.991027        26.9672 
  56   0.0000       1.015881        27.6435 
  57   0.0000       1.015924        27.6447 
  58   0.0000       1.102524        30.0012 
  59   0.0000       1.102719        30.0065 
  60   0.0000       1.145932        31.1824 
  61   0.0000       1.147589        31.2275 
  62   0.0000       1.191657        32.4266 
  63   0.0000       1.213264        33.0146 
  64   0.0000       1.222718        33.2719 
  65   0.0000       1.388408        37.7805 
  66   0.0000       1.501450        40.8565 
  67   0.0000       1.584822        43.1252 
  68   0.0000       1.587313        43.1930 
  69   0.0000       2.289764        62.3076 
  70   0.0000       2.552655        69.4613 
  71   0.0000       2.552696        69.4624 
  72   0.0000       2.561201        69.6938 
  73   0.0000       2.562549        69.7305 
  74   0.0000       2.648958        72.0818 
  75   0.0000       2.648962        72.0819 
  76   0.0000       2.763235        75.1915 
  77   0.0000       2.763833        75.2077 
  78   0.0000       2.802779        76.2675 
  79   0.0000       3.011735        81.9535 
  80   0.0000       3.013845        82.0109 
  81   0.0000       3.050201        83.0002 
  82   0.0000       3.097564        84.2890 
  83   0.0000       3.098231        84.3072 
  84   0.0000       3.116103        84.7935 
  85   0.0000       3.127732        85.1099 
  86   0.0000       3.155793        85.8735 
  87   0.0000       3.301219        89.8307 
  88   0.0000       3.305858        89.9570 
  89   0.0000       3.414343        92.9090 
  90   0.0000       3.417303        92.9895 
  91   0.0000       3.698211       100.6334 
  92   0.0000       3.901506       106.1654 
  93   0.0000       3.976708       108.2117 
  94   0.0000       3.976781       108.2137 
  95   0.0000       3.979849       108.2972 
  96   0.0000       3.980101       108.3041 
  97   0.0000       4.154942       113.0617 
  98   0.0000       4.160925       113.2245 
  99   0.0000       4.397534       119.6630 
 100   0.0000       4.520453       123.0078 
 101   0.0000       4.533619       123.3660 
 102   0.0000       4.807126       130.8086 
 103   0.0000       4.811645       130.9315 
 104   0.0000       5.017983       136.5463 
 105   0.0000       5.042562       137.2151 
 106   0.0000       5.257598       143.0665 
 107   0.0000       5.375913       146.2860 
 108   0.0000       5.397314       146.8684 
 109   0.0000       6.460680       175.8040 
 110   0.0000       8.371175       227.7912 
 111   0.0000       8.371179       227.7914 
 112   0.0000       8.464548       230.3321 
 113   0.0000       8.464586       230.3331 
 114   0.0000       8.716431       237.1862 
 115   0.0000       8.717304       237.2099 
 116   0.0000       8.729624       237.5452 
 117   0.0000       8.790299       239.1962 
 118   0.0000       8.794161       239.3013 
 119   0.0000       8.815422       239.8798 
 120   0.0000       8.820470       240.0172 
 121   0.0000       9.049157       246.2401 
 122   0.0000      10.286225       279.9024 
 123   0.0000      10.286422       279.9078 
 124   0.0000      10.290941       280.0308 
 125   0.0000      10.312435       280.6156 
 126   0.0000      10.364930       282.0441 
 127   0.0000      10.409299       283.2514 
 128   0.0000      10.524556       286.3877 
 129   0.0000      11.439350       311.2805 
 130   0.0000      11.439672       311.2893 
 131   0.0000      11.442212       311.3584 
 132   0.0000      11.442943       311.3783 
 133   0.0000      11.500554       312.9460 
 134   0.0000      11.518405       313.4317 
 135   0.0000      11.737240       319.3866 
 136   0.0000      11.763345       320.0969 
 137   0.0000      11.901521       323.8569 
 138   0.0000      13.888793       377.9333 

                 SPIN DOWN ORBITALS
  NO   OCC          E(Eh)            E(eV) 
   0   1.0000    -276.649359     -7528.0118 
   1   1.0000     -32.398414      -881.6057 
   2   1.0000     -28.062153      -763.6100 
   3   1.0000     -28.061155      -763.5829 
   4   1.0000     -28.055867      -763.4390 
   5   1.0000     -24.338752      -662.2911 
   6   1.0000      -3.533779       -96.1590 
   7   1.0000      -2.243264       -61.0423 
   8   1.0000      -2.233617       -60.7798 
   9   1.0000      -2.233590       -60.7791 
  10   1.0000      -1.009208       -27.4619 
  11   1.0000      -0.346750        -9.4355 
  12   1.0000      -0.307947        -8.3797 
  13   1.0000      -0.302060        -8.2195 
  14   1.0000      -0.182425        -4.9640 
  15   1.0000      -0.173746        -4.7279 
  16   1.0000      -0.171119        -4.6564 
  17   0.0000      -0.129050        -3.5116 
  18   0.0000      -0.116457        -3.1690 
  19   0.0000      -0.101681        -2.7669 
  20   0.0000      -0.021112        -0.5745 
  21   0.0000      -0.016882        -0.4594 
  22   0.0000       0.004983         0.1356 
  23   0.0000       0.012087         0.3289 
  24   0.0000       0.039341         1.0705 
  25   0.0000       0.042318         1.1515 
  26   0.0000       0.064641         1.7590 
  27   0.0000       0.067314         1.8317 
  28   0.0000       0.070430         1.9165 
  29   0.0000       0.071913         1.9569 
  30   0.0000       0.072438         1.9711 
  31   0.0000       0.086516         2.3542 
  32   0.0000       0.118200         3.2164 
  33   0.0000       0.194350         5.2885 
  34   0.0000       0.201181         5.4744 
  35   0.0000       0.218023         5.9327 
  36   0.0000       0.244378         6.6499 
  37   0.0000       0.244861         6.6630 
  38   0.0000       0.258462         7.0331 
  39   0.0000       0.303517         8.2591 
  40   0.0000       0.316330         8.6078 
  41   0.0000       0.329219         8.9585 
  42   0.0000       0.333585         9.0773 
  43   0.0000       0.364286         9.9127 
  44   0.0000       0.490890        13.3578 
  45   0.0000       0.607529        16.5317 
  46   0.0000       0.736090        20.0300 
  47   0.0000       0.739012        20.1095 
  48   0.0000       0.799304        21.7502 
  49   0.0000       0.802392        21.8342 
  50   0.0000       0.871034        23.7020 
  51   0.0000       0.917857        24.9762 
  52   0.0000       0.920056        25.0360 
  53   0.0000       0.989790        26.9336 
  54   0.0000       0.993028        27.0217 
  55   0.0000       1.000586        27.2273 
  56   0.0000       1.021638        27.8002 
  57   0.0000       1.023792        27.8588 
  58   0.0000       1.109506        30.1912 
  59   0.0000       1.123700        30.5774 
  60   0.0000       1.163191        31.6520 
  61   0.0000       1.189637        32.3717 
  62   0.0000       1.205094        32.7923 
  63   0.0000       1.238212        33.6935 
  64   0.0000       1.270958        34.5845 
  65   0.0000       1.396447        37.9992 
  66   0.0000       1.520645        41.3788 
  67   0.0000       1.602510        43.6065 
  68   0.0000       1.612433        43.8765 
  69   0.0000       2.298320        62.5405 
  70   0.0000       2.556070        69.5542 
  71   0.0000       2.556753        69.5728 
  72   0.0000       2.568773        69.8999 
  73   0.0000       2.569553        69.9211 
  74   0.0000       2.651544        72.1522 
  75   0.0000       2.651594        72.1535 
  76   0.0000       2.767487        75.3071 
  77   0.0000       2.770378        75.3858 
  78   0.0000       2.822408        76.8016 
  79   0.0000       3.030778        82.4717 
  80   0.0000       3.039469        82.7081 
  81   0.0000       3.081729        83.8581 
  82   0.0000       3.146283        85.6147 
  83   0.0000       3.150769        85.7368 
  84   0.0000       3.165223        86.1301 
  85   0.0000       3.186932        86.7208 
  86   0.0000       3.214089        87.4598 
  87   0.0000       3.357237        91.3551 
  88   0.0000       3.363653        91.5297 
  89   0.0000       3.448145        93.8288 
  90   0.0000       3.458662        94.1150 
  91   0.0000       3.748807       102.0102 
  92   0.0000       3.934945       107.0753 
  93   0.0000       4.016523       109.2951 
  94   0.0000       4.019151       109.3667 
  95   0.0000       4.023801       109.4932 
  96   0.0000       4.024792       109.5202 
  97   0.0000       4.191739       114.0630 
  98   0.0000       4.214133       114.6724 
  99   0.0000       4.415788       120.1597 
 100   0.0000       4.555838       123.9707 
 101   0.0000       4.584376       124.7472 
 102   0.0000       4.814616       131.0124 
 103   0.0000       4.816364       131.0599 
 104   0.0000       5.082495       138.3017 
 105   0.0000       5.112700       139.1236 
 106   0.0000       5.285630       143.8293 
 107   0.0000       5.439971       148.0291 
 108   0.0000       5.459719       148.5665 
 109   0.0000       6.506234       177.0436 
 110   0.0000       8.375715       227.9148 
 111   0.0000       8.375719       227.9149 
 112   0.0000       8.468742       230.4462 
 113   0.0000       8.469114       230.4563 
 114   0.0000       8.723414       237.3762 
 115   0.0000       8.724353       237.4017 
 116   0.0000       8.735749       237.7118 
 117   0.0000       8.797651       239.3963 
 118   0.0000       8.798450       239.4180 
 119   0.0000       8.823152       240.0902 
 120   0.0000       8.823737       240.1061 
 121   0.0000       9.059270       246.5153 
 122   0.0000      10.387208       282.6503 
 123   0.0000      10.396655       282.9074 
 124   0.0000      10.404685       283.1259 
 125   0.0000      10.428695       283.7792 
 126   0.0000      10.485794       285.3330 
 127   0.0000      10.505887       285.8797 
 128   0.0000      10.621588       289.0281 
 129   0.0000      11.528529       313.7072 
 130   0.0000      11.528818       313.7151 
 131   0.0000      11.528917       313.7178 
 132   0.0000      11.530024       313.7479 
 133   0.0000      11.591435       315.4190 
 134   0.0000      11.599548       315.6398 
 135   0.0000      11.829778       321.9046 
 136   0.0000      11.835787       322.0681 
 137   0.0000      11.979274       325.9726 
 138   0.0000      13.899565       378.2264 

                    ********************************
                    * MULLIKEN POPULATION ANALYSIS *
                    ********************************

--------------------------------------------
MULLIKEN ATOMIC CHARGES AND SPIN POPULATIONS
--------------------------------------------
   0 Co:    0.589920    1.945108
   1 F :   -0.589920    0.054892
Sum of atomic charges         :   -0.0000000
Sum of atomic spin populations:    2.0000000

-----------------------------------------------------
MULLIKEN REDUCED ORBITAL CHARGES AND SPIN POPULATIONS
-----------------------------------------------------
CHARGE
  0 Cos       :     6.548285  s :     6.548285
      pz      :     4.031044  p :    12.115991
      px      :     4.041617
      py      :     4.043330
      dz2     :     1.440308  d :     7.729147
      dxz     :     1.479181
      dyz     :     1.565945
      dx2y2   :     1.992567
      dxy     :     1.251145
      f0      :     0.006659  f :     0.015480
      f+1     :     0.004179
      f-1     :     0.004315
      f+2     :     0.000159
      f-2     :     0.000119
      f+3     :     0.000028
      f-3     :     0.000021
      g0      :     0.000570  g :     0.001176
      g+1     :     0.000276
      g-1     :     0.000278
      g+2     :     0.000004
      g-2     :     0.000020
      g+3     :     0.000003
      g-3     :     0.000004
      g+4     :     0.000016
      g-4     :     0.000006
  1 F s       :     4.007370  s :     4.007370
      pz      :     1.718196  p :     5.569532
      px      :     1.922897
      py      :     1.928439
      dz2     :     0.001912  d :     0.010920
      dxz     :     0.004198
      dyz     :     0.004246
      dx2y2   :     0.000403
      dxy     :     0.000161
      f0      :     0.000831  f :     0.002098
      f+1     :     0.000517
      f-1     :     0.000527
      f+2     :     0.000148
      f-2     :     0.000075
      f+3     :     0.000000
      f-3     :     0.000000

SPIN
  0 Cos       :    -0.062056  s :    -0.062056
      pz      :    -0.000044  p :     0.007892
      px      :     0.004357
      py      :     0.003579
      dz2     :     0.308456  d :     1.998435
      dxz     :     0.511440
      dyz     :     0.424097
      dx2y2   :     0.006716
      dxy     :     0.747725
      f0      :     0.000225  f :     0.000893
      f+1     :     0.000387
      f-1     :     0.000265
      f+2     :    -0.000004
      f-2     :     0.000046
      f+3     :    -0.000016
      f-3     :    -0.000009
      g0      :    -0.000062  g :    -0.000056
      g+1     :     0.000008
      g-1     :     0.000004
      g+2     :     0.000003
      g-2     :    -0.000007
      g+3     :     0.000002
      g-3     :     0.000003
      g+4     :    -0.000004
      g-4     :    -0.000002
  1 F s       :    -0.000878  s :    -0.000878
      pz      :    -0.000563  p :     0.056033
      px      :     0.031256
      py      :     0.025340
      dz2     :     0.000179  d :    -0.000278
      dxz     :    -0.000309
      dyz     :    -0.000348
      dx2y2   :     0.000002
      dxy     :     0.000198
      f0      :     0.000024  f :     0.000014
      f+1     :    -0.000022
      f-1     :    -0.000033
      f+2     :    -0.000006
      f-2     :     0.000053
      f+3     :     0.000000
      f-3     :     0.000000


                     *******************************
                     * LOEWDIN POPULATION ANALYSIS *
                     *******************************

-------------------------------------------
LOEWDIN ATOMIC CHARGES AND SPIN POPULATIONS
-------------------------------------------
   0 Co:    0.414751    1.931219
   1 F :   -0.414751    0.068781

----------------------------------------------------
LOEWDIN REDUCED ORBITAL CHARGES AND SPIN POPULATIONS
----------------------------------------------------
CHARGE
  0 Cos       :     6.451575  s :     6.451575
      pz      :     4.082664  p :    12.204505
      px      :     4.059397
      py      :     4.062444
      dz2     :     1.509725  d :     7.777862
      dxz     :     1.474830
      dyz     :     1.558053
      dx2y2   :     1.987217
      dxy     :     1.248038
      f0      :     0.063004  f :     0.144219
      f+1     :     0.039963
      f-1     :     0.040615
      f+2     :     0.000364
      f-2     :     0.000224
      f+3     :     0.000028
      f-3     :     0.000021
      g0      :     0.003615  g :     0.007087
      g+1     :     0.001691
      g-1     :     0.001721
      g+2     :     0.000007
      g-2     :     0.000024
      g+3     :     0.000003
      g-3     :     0.000004
      g+4     :     0.000016
      g-4     :     0.000006
  1 F s       :     3.728616  s :     3.728616
      pz      :     1.808048  p :     5.467168
      px      :     1.827175
      py      :     1.831945
      dz2     :     0.087566  d :     0.173737
      dxz     :     0.038915
      dyz     :     0.040812
      dx2y2   :     0.004131
      dxy     :     0.002313
      f0      :     0.020363  f :     0.045230
      f+1     :     0.010894
      f-1     :     0.011489
      f+2     :     0.001562
      f-2     :     0.000922
      f+3     :     0.000000
      f-3     :     0.000000

SPIN
  0 Cos       :    -0.051244  s :    -0.051244
      pz      :     0.002223  p :     0.017331
      px      :     0.008416
      py      :     0.006692
      dz2     :     0.299301  d :     1.959309
      dxz     :     0.495582
      dyz     :     0.411118
      dx2y2   :     0.007015
      dxy     :     0.746293
      f0      :     0.000606  f :     0.005539
      f+1     :     0.002721
      f-1     :     0.002139
      f+2     :    -0.000014
      f-2     :     0.000113
      f+3     :    -0.000016
      f-3     :    -0.000009
      g0      :    -0.000025  g :     0.000284
      g+1     :     0.000175
      g-1     :     0.000149
      g+2     :    -0.000002
      g-2     :    -0.000011
      g+3     :     0.000002
      g-3     :     0.000003
      g+4     :    -0.000004
      g-4     :    -0.000002
  1 F s       :    -0.002994  s :    -0.002994
      pz      :    -0.005169  p :     0.046262
      px      :     0.028320
      py      :     0.023111
      dz2     :     0.001315  d :     0.018048
      dxz     :     0.008753
      dyz     :     0.007100
      dx2y2   :    -0.000245
      dxy     :     0.001125
      f0      :     0.001269  f :     0.007465
      f+1     :     0.003151
      f-1     :     0.002595
      f+2     :    -0.000043
      f-2     :     0.000493
      f+3     :     0.000000
      f-3     :     0.000000


                      *****************************
                      * MAYER POPULATION ANALYSIS *
                      *****************************

  NA   - Mulliken gross atomic population
  ZA   - Total nuclear charge
  QA   - Mulliken gross atomic charge
  VA   - Mayer's total valence
  BVA  - Mayer's bonded valence
  FA   - Mayer's free valence

  ATOM       NA         ZA         QA         VA         BVA        FA
  0 Co    26.4101    27.0000     0.5899     2.7662     0.8373     1.9289
  1 F      9.5899     9.0000    -0.5899     0.8416     0.8373     0.0043

  Mayer bond orders larger than 0.100000
B(  0-Co,  1-F ) :   0.8373 

-------
TIMINGS
-------

Total SCF time: 0 days 0 hours 0 min 8 sec 

Total time                  ....       8.466 sec
Sum of individual times     ....       8.241 sec  ( 97.3%)

Fock matrix formation       ....       7.641 sec  ( 90.3%)
  Split-RI-J                ....       5.745 sec  ( 75.2% of F)
  XC integration            ....       1.669 sec  ( 21.8% of F)
    Basis function eval.    ....       0.217 sec  ( 13.0% of XC)
    Density eval.           ....       0.243 sec  ( 14.6% of XC)
    XC-Functional eval.     ....       0.063 sec  (  3.8% of XC)
    XC-Potential eval.      ....       0.682 sec  ( 40.9% of XC)
Diagonalization             ....       0.220 sec  (  2.6%)
Density matrix formation    ....       0.026 sec  (  0.3%)
Population analysis         ....       0.007 sec  (  0.1%)
Initial guess               ....       0.116 sec  (  1.4%)
Orbital Transformation      ....       0.000 sec  (  0.0%)
Orbital Orthonormalization  ....       0.000 sec  (  0.0%)
DIIS solution               ....       0.083 sec  (  1.0%)
Grid generation             ....       0.148 sec  (  1.7%)


-------------------------------------------------------------------------------
                          DFT DISPERSION CORRECTION                            
                                                                               
                              DFTD3 V3.1  Rev 1                                
                          USING Becke-Johnson damping                          
-------------------------------------------------------------------------------
The TPSS functional is recognized
Active option DFTDOPT                   ...         4   

molecular C6(AA) [au] = 300.119754 


            DFT-D V3
 parameters
 s6 scaling factor         :     1.0000 
 a1 scaling factor         :     0.4535 
 s8 scaling factor         :     1.9435 
 a2 scaling factor         :     4.4752 
 ad hoc parameters k1-k3   :    16.0000     1.3333    -4.0000 

 Edisp/kcal,au: -0.332611274187  -0.000530049748 
 E6   /kcal   :  -0.137183594 
 E8   /kcal   :  -0.195427680 
 % E8         :  58.755579135 

-------------------------   ----------------
Dispersion correction           -0.000530050
-------------------------   ----------------


-------------------------   --------------------
FINAL SINGLE POINT ENERGY     -1482.736655982805
-------------------------   --------------------


                            ***************************************
                            *     ORCA property calculations      *
                            ***************************************

                                    ---------------------
                                    Active property flags
                                    ---------------------
   (+) Dipole Moment


------------------------------------------------------------------------------
                       ORCA ELECTRIC PROPERTIES CALCULATION
------------------------------------------------------------------------------

Dipole Moment Calculation                       ... on
Quadrupole Moment Calculation                   ... off
Polarizability Calculation                      ... off
GBWName                                         ... 38_CoF.gbw
Electron density file                           ... 38_CoF.scfp
The origin for moment calculation is the CENTER OF MASS  = ( 0.000000,  0.000000  1.040872)

-------------
DIPOLE MOMENT
-------------
                                X             Y             Z
Electronic contribution:      0.00000      -0.00000      -2.44244
Nuclear contribution   :      0.00000       0.00000       0.74078
                        -----------------------------------------
Total Dipole Moment    :      0.00000      -0.00000      -1.70166
                        -----------------------------------------
Magnitude (a.u.)       :      1.70166
Magnitude (Debye)      :      4.32528



--------------------
Rotational spectrum 
--------------------
 
Rotational constants in cm-1:     0.000000     0.381744     0.381744 
Rotational constants in MHz :     0.000000 11444.406260 11444.406260 

 Dipole components along the rotational axes: 
x,y,z [a.u.] :    -1.701660    -0.000000     0.000000 
x,y,z [Debye]:    -4.325275    -0.000000     0.000000 

 

Timings for individual modules:

Sum of individual times         ...       12.026 sec (=   0.200 min)
GTO integral calculation        ...        3.232 sec (=   0.054 min)  26.9 %
SCF iterations                  ...        8.794 sec (=   0.147 min)  73.1 %
                             ****ORCA TERMINATED NORMALLY****
TOTAL RUN TIME: 0 days 0 hours 0 minutes 12 seconds 614 msec
