
                                 *****************
                                 * O   R   C   A *
                                 *****************

           --- An Ab Initio, DFT and Semiempirical electronic structure package ---

                  #######################################################
                  #                        -***-                        #
                  #          Department of theory and spectroscopy      #
                  #               Directorship: Frank Neese             #
                  #        Max Planck Institute fuer Kohlenforschung    #
                  #                Kaiser Wilhelm Platz 1               #
                  #                 D-45470 Muelheim/Ruhr               #
                  #                      Germany                        #
                  #                                                     #
                  #                  All rights reserved                #
                  #                        -***-                        #
                  #######################################################


                         Program Version 4.2.0 -  RELEASE  -


 With contributions from (in alphabetic order):
   Daniel Aravena         : Magnetic Suceptibility
   Michael Atanasov       : Ab Initio Ligand Field Theory (pilot matlab implementation)
   Alexander A. Auer      : GIAO ZORA, VPT2
   Ute Becker             : Parallelization
   Giovanni Bistoni       : ED, misc. LED, open-shell LED, HFLED
   Martin Brehm           : Molecular dynamics
   Dmytro Bykov           : SCF Hessian
   Vijay G. Chilkuri      : MRCI spin determinant printing, contributions to CSF-ICE
   Dipayan Datta          : RHF DLPNO-CCSD density
   Achintya Kumar Dutta   : EOM-CC, STEOM-CC
   Dmitry Ganyushin       : Spin-Orbit,Spin-Spin,Magnetic field MRCI
   Miquel Garcia          : C-PCM Hessian, Gaussian charge scheme
   Yang Guo               : DLPNO-NEVPT2, CIM, IAO-localization
   Andreas Hansen         : Spin unrestricted coupled pair/coupled cluster methods
   Benjamin Helmich-Paris : CASSCF linear response (MC-RPA)
   Lee Huntington         : MR-EOM, pCC
   Robert Izsak           : Overlap fitted RIJCOSX, COSX-SCS-MP3, EOM
   Christian Kollmar      : KDIIS, OOCD, Brueckner-CCSD(T), CCSD density
   Simone Kossmann        : Meta GGA functionals, TD-DFT gradient, OOMP2, MP2 Hessian
   Martin Krupicka        : AUTO-CI
   Lucas Lang             : DCDCAS
   Dagmar Lenk            : GEPOL surface, SMD
   Dimitrios Liakos       : Extrapolation schemes; Compound Job, initial MDCI parallelization
   Dimitrios Manganas     : Further ROCIS development; embedding schemes
   Dimitrios Pantazis     : SARC Basis sets
   Taras Petrenko         : DFT Hessian,TD-DFT gradient, ASA, ECA, R-Raman, ABS, FL, XAS/XES, NRVS
   Peter Pinski           : DLPNO-MP2, DLPNO-MP2 Gradient
   Christoph Reimann      : Effective Core Potentials
   Marius Retegan         : Local ZFS, SOC
   Christoph Riplinger    : Optimizer, TS searches, QM/MM, DLPNO-CCSD(T), (RO)-DLPNO pert. Triples
   Tobias Risthaus        : Range-separated hybrids, TD-DFT gradient, RPA, STAB
   Michael Roemelt        : Original ROCIS implementation
   Masaaki Saitow         : Open-shell DLPNO-CCSD energy and density
   Barbara Sandhoefer     : DKH picture change effects
   Avijit Sen             : IP-ROCIS
   Kantharuban Sivalingam : CASSCF convergence, NEVPT2, FIC-MRCI
   Bernardo de Souza      : ESD, SOC TD-DFT
   Georgi Stoychev        : AutoAux, RI-MP2 NMR
   Willem Van den Heuvel  : Paramagnetic NMR
   Boris Wezisla          : Elementary symmetry handling
   Frank Wennmohs         : Technical directorship


 We gratefully acknowledge several colleagues who have allowed us to
 interface, adapt or use parts of their codes:
   Stefan Grimme, W. Hujo, H. Kruse,             : VdW corrections, initial TS optimization,
                  C. Bannwarth                     DFT functionals, gCP, sTDA/sTD-DF
   Ed Valeev, F. Pavosevic, A. Kumar             : LibInt (2-el integral package), F12 methods
   Garnet Chan, S. Sharma, J. Yang, R. Olivares  : DMRG
   Ulf Ekstrom                                   : XCFun DFT Library
   Mihaly Kallay                                 : mrcc  (arbitrary order and MRCC methods)
   Andreas Klamt, Michael Diedenhofen            : otool_cosmo (COSMO solvation model)
   Jiri Pittner, Ondrej Demel                    : Mk-CCSD
   Frank Weinhold                                : gennbo (NPA and NBO analysis)
   Christopher J. Cramer and Donald G. Truhlar   : smd solvation model
   Lars Goerigk                                  : TD-DFT with DH, B97 family of functionals
   V. Asgeirsson, H. Jonsson                     : NEB implementation
   FAccTs GmbH                                   : IRC, NEB, NEB-TS, Multilevel, MM, QM/MM, CI optimization
   S Lehtola, MJT Oliveira, MAL Marques          : LibXC Library


 Your calculation uses the libint2 library for the computation of 2-el integrals
 For citations please refer to: http://libint.valeyev.net

 Your ORCA version has been built with support for libXC version: 4.2.3
 For citations please refer to: https://tddft.org/programs/libxc/

 This ORCA versions uses:
   CBLAS   interface :  Fast vector & matrix operations
   LAPACKE interface :  Fast linear algebra routines
   SCALAPACK package :  Parallel linear algebra routines


Your calculation utilizes the atom-pairwise dispersion correction
with the Becke-Johnson damping scheme (D3BJ)
Cite in your paper:
S.Grimme, S.Ehrlich, L.Goerigk, J Comput Chem, (2011), 32, 1456–1465 
S.Grimme, J.Antony, S.Ehrlich and H.Krieg, J.Chem.Phys., 132, (2010), 154104 
   

----- Orbital basis set information -----
Your calculation utilizes the basis: aug-cc-pVTZ 
    H, B-Ne : Obtained from the ccRepo (grant-hill.group.shef.ac.uk/ccrepo) Feb. 2017
              R. A. Kendall, T. H. Dunning, Jr., R. J. Harrison, J. Chem. Phys. 96, 6796 (1992)
         He : Obtained from the ccRepo (grant-hill.group.shef.ac.uk/ccrepo) Feb. 2017
              D. E. Woon, T. H. Dunning, Jr., J. Chem. Phys. 100, 2975 (1994)
  Li-Be, Na : Obtained from the ccRepo (grant-hill.group.shef.ac.uk/ccrepo) Feb. 2017
              B. P. Prascher, D. E. Woon, K. A. Peterson, T. H. Dunning, Jr., A. K. Wilson, Theor. Chem. Acc. 128, 69 (2011)
         Mg : Obtained from the Peterson Research Group Website (tyr0.chem.wsu.edu/~kipeters) Feb. 2017
              B. P. Prascher, D. E. Woon, K. A. Peterson, T. H. Dunning, Jr., A. K. Wilson, Theor. Chem. Acc. 128, 69 (2011)
      Al-Ar : Obtained from the ccRepo (grant-hill.group.shef.ac.uk/ccrepo) Feb. 2017
              D. E. Woon, T. H. Dunning, Jr., J. Chem. Phys. 98, 1358 (1993)
      Sc-Zn : Obtained from the ccRepo (grant-hill.group.shef.ac.uk/ccrepo) Feb. 2017
              N. B. Balabanov, K. A. Peterson, J. Chem. Phys. 123, 064107 (2005)
              N. B. Balabanov, K. A. Peterson, J. Chem. Phys. 125, 074110 (2006)
      Ga-Kr : Obtained from the ccRepo (grant-hill.group.shef.ac.uk/ccrepo) Feb. 2017
              A. K. Wilson, D. E. Woon, K. A. Peterson, T. H. Dunning, Jr., J. Chem. Phys. 110, 7667 (1999)
     Ag, Au : Obtained from the Peterson Research Group Website (tyr0.chem.wsu.edu/~kipeters) Feb. 2017
              K. A. Peterson, C. Puzzarini, Theor. Chem. Acc. 114, 283 (2005)

----- AuxJ basis set information -----
Your calculation utilizes the auxiliary basis: def2/J
   F. Weigend, Phys. Chem. Chem. Phys. 8, 1057 (2006).

================================================================================
                                        WARNINGS
                       Please study these warnings very carefully!
================================================================================


WARNING: your system is open-shell and RHF/RKS was chosen
  ===> : WILL SWITCH to UHF/UKS


INFO   : the flag for use of LIBINT has been found!

================================================================================
                                       INPUT FILE
================================================================================
NAME = 41_CoO.in
|  1> #
|  2> # 41_CoO tpss/aug-cc-pvtz
|  3> #
|  4> ! tpss d3bj aug-cc-pvtz def2/j grid4 nofinalgrid
|  5> 
|  6> *xyz 0 4
|  7>   Co  0.00000000000000      0.00000000000000      0.18722579130779
|  8>   O   0.00000000000000      0.00000000000000      1.81277420869221
|  9> *
| 10> 
| 11> %pal
| 12> nprocs 24
| 13> end
| 14> 
| 15> 
| 16>                          ****END OF INPUT****
================================================================================

                       ****************************
                       * Single Point Calculation *
                       ****************************

---------------------------------
CARTESIAN COORDINATES (ANGSTROEM)
---------------------------------
  Co     0.000000    0.000000    0.187226
  O      0.000000    0.000000    1.812774

----------------------------
CARTESIAN COORDINATES (A.U.)
----------------------------
  NO LB      ZA    FRAG     MASS         X           Y           Z
   0 Co   27.0000    0    58.930    0.000000    0.000000    0.353805
   1 O     8.0000    0    15.999    0.000000    0.000000    3.425647

--------------------------------
INTERNAL COORDINATES (ANGSTROEM)
--------------------------------
 Co     0   0   0     0.000000000000     0.00000000     0.00000000
 O      1   0   0     1.625548417384     0.00000000     0.00000000

---------------------------
INTERNAL COORDINATES (A.U.)
---------------------------
 Co     0   0   0     0.000000000000     0.00000000     0.00000000
 O      1   0   0     3.071841326286     0.00000000     0.00000000

---------------------
BASIS SET INFORMATION
---------------------
There are 2 groups of distinct atoms

 Group   1 Type Co  : 116s77p23d3f2g contracted to 8s7p5d3f2g pattern {19191919191911/151515151511/77711/111/11}
 Group   2 Type O   : 19s6p3d2f contracted to 5s4p3d2f pattern {88111/3111/111/11}

Atom   0Co   basis set group =>   1
Atom   1O    basis set group =>   2
---------------------------------
AUXILIARY/J BASIS SET INFORMATION
---------------------------------
There are 2 groups of distinct atoms

 Group   1 Type Co  : 19s5p5d3f3g contracted to 8s5p5d2f3g pattern {121111111/11111/11111/21/111}
 Group   2 Type O   : 12s5p4d2f1g contracted to 6s4p3d1f1g pattern {711111/2111/211/2/1}

Atom   0Co   basis set group =>   1
Atom   1O    basis set group =>   2


           ************************************************************
           *        Program running with 24 parallel MPI-processes    *
           *              working on a common directory               *
           ************************************************************
------------------------------------------------------------------------------
                           ORCA GTO INTEGRAL CALCULATION
                           -- RI-GTO INTEGRALS CHOSEN --
------------------------------------------------------------------------------

                         BASIS SET STATISTICS AND STARTUP INFO

Gaussian basis set:
 # of primitive gaussian shells          ...  251
 # of primitive gaussian functions       ...  567
 # of contracted shells                  ...   39
 # of contracted basis functions         ...  139
 Highest angular momentum                ...    4
 Maximum contraction depth               ...   19
Auxiliary gaussian basis set:
 # of primitive gaussian shells          ...   59
 # of primitive gaussian functions       ...  177
 # of contracted shells                  ...   38
 # of contracted aux-basis functions     ...  138
 Highest angular momentum                ...    4
 Maximum contraction depth               ...   12
Ratio of auxiliary to basis functions    ...  0.99
Integral package used                  ... LIBINT
 One Electron integrals                  ... done
 Ordering auxiliary basis shells         ... done
 Integral threshhold             Thresh  ...  1.000e-10
 Primitive cut-off               TCut    ...  1.000e-11
 Pre-screening matrix                    ... done
 Shell pair data                         ... 
 Ordering of the shell pairs             ... done (   0.000 sec) 780 of 780 pairs
 Determination of significant pairs      ... done (   0.000 sec)
 Creation of shell pair data             ... done (   0.001 sec)
 Storage of shell pair data              ... done (   0.071 sec)
 Shell pair data done in (   0.073 sec)
 Computing two index integrals           ... done
 Cholesky decomposition of the V-matrix  ... done


Timings:
 Total evaluation time                   ...   2.735 sec (  0.046 min)
 One electron matrix time                ...   0.040 sec (  0.001 min) =  1.5%
 Schwartz matrix evaluation time         ...   2.590 sec (  0.043 min) = 94.7%
 Two index repulsion integral time       ...   0.002 sec (  0.000 min) =  0.1%
 Cholesky decomposition of V             ...   0.001 sec (  0.000 min) =  0.0%
 Three index repulsion integral time     ...   0.000 sec (  0.000 min) =  0.0%



           ************************************************************
           *        Program running with 24 parallel MPI-processes    *
           *              working on a common directory               *
           ************************************************************
-------------------------------------------------------------------------------
                                 ORCA SCF
-------------------------------------------------------------------------------

------------
SCF SETTINGS
------------
Hamiltonian:
 Density Functional     Method          .... DFT(GTOs)
 Exchange Functional    Exchange        .... TPSS
 Correlation Functional Correlation     .... TPSS
 LDA part of GGA corr.  LDAOpt          .... PW91-LDA
 Gradients option       PostSCFGGA      .... off
   Density functional embedding theory  .... OFF
   NL short-range parameter             ....  5.000000
 RI-approximation to the Coulomb term is turned on
   Number of auxiliary basis functions  .... 138


General Settings:
 Integral files         IntName         .... 41_CoO
 Hartree-Fock type      HFTyp           .... UHF
 Total Charge           Charge          ....    0
 Multiplicity           Mult            ....    4
 Number of Electrons    NEL             ....   35
 Basis Dimension        Dim             ....  139
 Nuclear Repulsion      ENuc            ....     70.3161319407 Eh

Convergence Acceleration:
 DIIS                   CNVDIIS         .... on
   Start iteration      DIISMaxIt       ....    12
   Startup error        DIISStart       ....  0.200000
   # of expansion vecs  DIISMaxEq       ....     5
   Bias factor          DIISBfac        ....   1.050
   Max. coefficient     DIISMaxC        ....  10.000
 Newton-Raphson         CNVNR           .... off
 SOSCF                  CNVSOSCF        .... off
 Level Shifting         CNVShift        .... on
   Level shift para.    LevelShift      ....    0.2500
   Turn off err/grad.   ShiftErr        ....    0.0010
 Zerner damping         CNVZerner       .... off
 Static damping         CNVDamp         .... on
   Fraction old density DampFac         ....    0.7000
   Max. Damping (<1)    DampMax         ....    0.9800
   Min. Damping (>=0)   DampMin         ....    0.0000
   Turn off err/grad.   DampErr         ....    0.1000
 Fernandez-Rico         CNVRico         .... off

SCF Procedure:
 Maximum # iterations   MaxIter         ....   125
 SCF integral mode      SCFMode         .... Direct
   Integral package                     .... LIBINT
 Reset frequency        DirectResetFreq ....    20
 Integral Threshold     Thresh          ....  1.000e-10 Eh
 Primitive CutOff       TCut            ....  1.000e-11 Eh

Convergence Tolerance:
 Convergence Check Mode ConvCheckMode   .... Total+1el-Energy
 Convergence forced     ConvForced      .... 0
 Energy Change          TolE            ....  1.000e-06 Eh
 1-El. energy change                    ....  1.000e-03 Eh
 DIIS Error             TolErr          ....  1.000e-06


Diagonalization of the overlap matrix:
Smallest eigenvalue                        ... 8.975e-05
Time for diagonalization                   ...    0.006 sec
Threshold for overlap eigenvalues          ... 1.000e-08
Number of eigenvalues below threshold      ... 0
Time for construction of square roots      ...    0.002 sec
Total time needed                          ...    0.008 sec

-------------------
DFT GRID GENERATION
-------------------

General Integration Accuracy     IntAcc      ...  4.670
Radial Grid Type                 RadialGrid  ... Gauss-Chebyshev
Angular Grid (max. acc.)         AngularGrid ... Lebedev-302
Angular grid pruning method      GridPruning ... 3 (G Style)
Weight generation scheme         WeightScheme... Becke
Basis function cutoff            BFCut       ...    1.0000e-10
Integration weight cutoff        WCut        ...    1.0000e-14
Grids for H and He will be reduced by one unit

# of grid points (after initial pruning)     ...  15852 (   0.0 sec)
# of grid points (after weights+screening)   ...  15810 (   0.0 sec)
nearest neighbour list constructed           ...    0.0 sec
Grid point re-assignment to atoms done       ...    0.0 sec
Grid point division into batches done        ...    0.1 sec
Reduced shell lists constructed in    0.1 sec

Total number of grid points                  ...    15810
Total number of batches                      ...      248
Average number of points per batch           ...       63
Average number of grid points per atom       ...     7905
Average number of shells per batch           ...    14.17 (36.32%)
Average number of basis functions per batch  ...    33.33 (23.98%)
Average number of large shells per batch     ...     6.42 (45.29%)
Average number of large basis fcns per batch ...    16.42 (49.25%)
Maximum spatial batch extension              ...  28.57, 31.41, 18.20 au
Average spatial batch extension              ...   0.89,  0.95,  0.67 au

Time for grid setup =    0.166 sec

------------------------------
INITIAL GUESS: MODEL POTENTIAL
------------------------------
Loading Hartree-Fock densities                     ... done
Calculating cut-offs                               ... done
Setting up the integral package                    ... done
Initializing the effective Hamiltonian             ... done
Starting the Coulomb interaction                   ... done (   0.0 sec)
Reading the grid                                   ... done
Mapping shells                                     ... done
Starting the XC term evaluation                    ... done (   0.0 sec)
  promolecular density results
     # of electrons  =     35.000025209
     EX              =    -65.830524438
     EC              =     -1.472709194
     EX+EC           =    -67.303233632
Transforming the Hamiltonian                       ... done (   0.0 sec)
Diagonalizing the Hamiltonian                      ... done (   0.0 sec)
Back transforming the eigenvectors                 ... done (   0.0 sec)
Now organizing SCF variables                       ... done
                      ------------------
                      INITIAL GUESS DONE (   0.3 sec)
                      ------------------
--------------
SCF ITERATIONS
--------------
ITER       Energy         Delta-E        Max-DP      RMS-DP      [F,P]     Damp
               ***  Starting incremental Fock matrix formation  ***
  0  -1457.8080763238   0.000000000000 0.18382359  0.00216147  0.4121451 0.7000
  1  -1457.8656597331  -0.057583409345 0.08752520  0.00116531  0.2773149 0.7000
                               ***Turning on DIIS***
  2  -1457.9326575287  -0.066997795615 0.11241529  0.00186184  0.0609670 0.0000
  3  -1457.9829783334  -0.050320804619 0.02440956  0.00027545  0.2418265 0.7000
  4  -1458.0046988311  -0.021720497778 0.02800477  0.00032347  0.2022346 0.7000
  5  -1458.0235432113  -0.018844380183 0.02276881  0.00029482  0.1551702 0.7000
  6  -1458.0355475940  -0.012004382729 0.01656706  0.00023309  0.1178285 0.7000
  7  -1458.0431644351  -0.007616841099 0.04428854  0.00089605  0.0900527 0.0000
  8  -1458.0544522823  -0.011287847160 0.01487461  0.00032791  0.0470859 0.0000
  9  -1458.0541773777   0.000274904602 0.00592200  0.00012958  0.0519032 0.0000
 10  -1458.0553831147  -0.001205737016 0.00466256  0.00004910  0.0405989 0.0000
 11  -1458.0565896443  -0.001206529614 0.00497430  0.00005603  0.0264141 0.0000
 12  -1458.0572793870  -0.000689742697 0.00469383  0.00005227  0.0126527 0.0000
 13  -1458.0574812184  -0.000201831336 0.94854239  0.00582805  0.0007898 0.0000
 14  -1458.0145629891   0.042918229269 0.00003371  0.00000075  0.2570882 0.7000
 15  -1458.0144971834   0.000065805672 0.00004450  0.00000081  0.2572912 0.7000
 16  -1458.0144229907   0.000074192739 0.00005078  0.00000075  0.2575139 0.7000
 17  -1458.0143569149   0.000066075760 0.00005576  0.00000062  0.2577088 0.7000
 18  -1458.0142949209   0.000061994059 0.09770722  0.00110615  0.2578624 0.7000
 19  -1458.0297568971  -0.015461976241 0.13948311  0.00158609  0.0956959 0.0000
               *** Restarting incremental Fock matrix formation ***
                                   *** Resetting DIIS ***
 20  -1457.9451126591   0.084644237963 0.11933513  0.00168973  0.3302708 0.7000
 21  -1457.9902569303  -0.045144271205 0.06684534  0.00072636  0.1364215 0.7000
 22  -1457.9561649709   0.034091959421 0.03582038  0.00035713  0.2466247 0.7000
 23  -1457.9506211663   0.005543804576 0.01714797  0.00019702  0.2650392 0.7000
 24  -1457.9622836117  -0.011662445319 0.00989413  0.00013913  0.2526169 0.7000
 25  -1457.9799480018  -0.017664390151 0.00928854  0.00018608  0.2293517 0.7000
 26  -1457.9917894951  -0.011841493299 0.08938295  0.00090097  0.2056744 0.7000
 27  -1458.0388094999  -0.047020004743 0.15144482  0.00150703  0.0343337 0.0000
 28  -1457.9475692923   0.091240207581 0.01345645  0.00013992  0.2831265 0.7000
 29  -1457.9716128486  -0.024043556316 0.01885757  0.00018041  0.2576202 0.7000
 30  -1457.9975008892  -0.025888040583 0.01967672  0.00017915  0.2274941 0.7000
 31  -1458.0184059904  -0.020905101255 0.01916221  0.00017275  0.1971480 0.7000
 32  -1458.0336415172  -0.015235526779 0.03115131  0.00041116  0.1705495 0.7000
 33  -1458.0553486473  -0.021707130091 0.09254324  0.00096980  0.0569739 0.0000
 34  -1458.0551605497   0.000188097610 0.00332594  0.00006188  0.1071170 0.7000
 35  -1458.0572359190  -0.002075369305 0.01515261  0.00023733  0.0934944 0.0000
 36  -1458.0648013989  -0.007565479908 0.00734168  0.00008796  0.0426478 0.0000
 37  -1458.0667612071  -0.001959808225 0.00647467  0.00007216  0.0316272 0.0000
 38  -1458.0678754890  -0.001114281848 0.00691657  0.00007947  0.0155058 0.0000
 39  -1458.0683237364  -0.000448247469 0.00288835  0.00004225  0.0044646 0.0000
               *** Restarting incremental Fock matrix formation ***
                                   *** Resetting DIIS ***
 40  -1458.0683468217  -0.000023085258 0.00308954  0.00006487  0.0040779 0.0000
 41  -1458.0682847987   0.000062023003 0.00208078  0.00003865  0.0095406 0.0000
 42  -1458.0683534587  -0.000068659978 0.00077103  0.00001071  0.0014083 0.0000
 43  -1458.0683576635  -0.000004204792 0.00109794  0.00001377  0.0008581 0.0000
 44  -1458.0683583766  -0.000000713154 0.00049866  0.00000704  0.0007570 0.0000
 45  -1458.0683576434   0.000000733203 0.00027138  0.00000275  0.0006578 0.0000
 46  -1458.0683582786  -0.000000635173 0.00014769  0.00000227  0.0002466 0.0000
 47  -1458.0683580904   0.000000188160 0.00012214  0.00000124  0.0001307 0.0000
                 **** Energy Check signals convergence ****

               *****************************************************
               *                     SUCCESS                       *
               *           SCF CONVERGED AFTER  48 CYCLES          *
               *****************************************************


----------------
TOTAL SCF ENERGY
----------------

Total Energy       :        -1458.06835825 Eh          -39676.05712 eV

Components:
Nuclear Repulsion  :           70.31613194 Eh            1913.39923 eV
Electronic Energy  :        -1528.38449019 Eh          -41589.45635 eV
One Electron Energy:        -2158.96105373 Eh          -58748.31698 eV
Two Electron Energy:          630.57656354 Eh           17158.86063 eV

Virial components:
Potential Energy   :        -2913.85700030 Eh          -79290.08001 eV
Kinetic Energy     :         1455.78864206 Eh           39614.02289 eV
Virial Ratio       :            2.00156597


DFT components:
N(Alpha)           :       19.000003989634 electrons
N(Beta)            :       16.000005663961 electrons
N(Total)           :       35.000009653595 electrons
E(X)               :      -66.401949042302 Eh       
E(C)               :       -1.482050608326 Eh       
E(XC)              :      -67.883999650628 Eh       
DFET-embed. en.    :        0.000000000000 Eh       

---------------
SCF CONVERGENCE
---------------

  Last Energy change         ...   -1.5538e-07  Tolerance :   1.0000e-06
  Last MAX-Density change    ...    5.5493e-05  Tolerance :   1.0000e-05
  Last RMS-Density change    ...    7.8653e-07  Tolerance :   1.0000e-06
  Last DIIS Error            ...    1.4926e-05  Tolerance :   1.0000e-06

             **** THE GBW FILE WAS UPDATED (41_CoO.gbw) ****
             **** DENSITY FILE WAS UPDATED (41_CoO.scfp) ****
             **** ENERGY FILE WAS UPDATED (41_CoO.en.tmp) ****
----------------------
UHF SPIN CONTAMINATION
----------------------

Warning: in a DFT calculation there is little theoretical justification to 
         calculate <S**2> as in Hartree-Fock theory. We will do it anyways
         but you should keep in mind that the values have only limited relevance

Expectation value of <S**2>     :     3.763913
Ideal value S*(S+1) for S=1.5   :     3.750000
Deviation                       :     0.013913

             **** THE GBW FILE WAS UPDATED (41_CoO.gbw) ****
             **** DENSITY FILE WAS UPDATED (41_CoO.scfp) ****
----------------
ORBITAL ENERGIES
----------------
                 SPIN UP ORBITALS
  NO   OCC          E(Eh)            E(eV) 
   0   1.0000    -276.710645     -7529.6795 
   1   1.0000     -32.511686      -884.6880 
   2   1.0000     -28.167217      -766.4689 
   3   1.0000     -28.167217      -766.4689 
   4   1.0000     -28.162201      -766.3324 
   5   1.0000     -18.901957      -514.3484 
   6   1.0000      -3.693504      -100.5054 
   7   1.0000      -2.395459       -65.1837 
   8   1.0000      -2.395458       -65.1837 
   9   1.0000      -2.393862       -65.1403 
  10   1.0000      -0.852440       -23.1961 
  11   1.0000      -0.349614        -9.5135 
  12   1.0000      -0.347184        -9.4474 
  13   1.0000      -0.347184        -9.4473 
  14   1.0000      -0.315959        -8.5977 
  15   1.0000      -0.273151        -7.4328 
  16   1.0000      -0.235104        -6.3975 
  17   1.0000      -0.235104        -6.3975 
  18   1.0000      -0.219331        -5.9683 
  19   0.0000      -0.137183        -3.7329 
  20   0.0000      -0.024423        -0.6646 
  21   0.0000      -0.024423        -0.6646 
  22   0.0000       0.005380         0.1464 
  23   0.0000       0.010578         0.2878 
  24   0.0000       0.037823         1.0292 
  25   0.0000       0.037824         1.0292 
  26   0.0000       0.062643         1.7046 
  27   0.0000       0.067120         1.8264 
  28   0.0000       0.067372         1.8333 
  29   0.0000       0.070876         1.9286 
  30   0.0000       0.070876         1.9286 
  31   0.0000       0.085242         2.3196 
  32   0.0000       0.109271         2.9734 
  33   0.0000       0.183668         4.9979 
  34   0.0000       0.183668         4.9979 
  35   0.0000       0.190436         5.1820 
  36   0.0000       0.203507         5.5377 
  37   0.0000       0.203507         5.5377 
  38   0.0000       0.250195         6.8081 
  39   0.0000       0.288986         7.8637 
  40   0.0000       0.291457         7.9310 
  41   0.0000       0.309432         8.4201 
  42   0.0000       0.309433         8.4201 
  43   0.0000       0.326756         8.8915 
  44   0.0000       0.480929        13.0867 
  45   0.0000       0.559894        15.2355 
  46   0.0000       0.559915        15.2361 
  47   0.0000       0.594806        16.1855 
  48   0.0000       0.678628        18.4664 
  49   0.0000       0.678628        18.4664 
  50   0.0000       0.702883        19.1264 
  51   0.0000       0.802861        21.8470 
  52   0.0000       0.802861        21.8470 
  53   0.0000       0.894239        24.3335 
  54   0.0000       0.894239        24.3335 
  55   0.0000       0.953777        25.9536 
  56   0.0000       0.960724        26.1426 
  57   0.0000       0.960724        26.1426 
  58   0.0000       1.072575        29.1862 
  59   0.0000       1.074036        29.2260 
  60   0.0000       1.074803        29.2469 
  61   0.0000       1.095863        29.8200 
  62   0.0000       1.095863        29.8200 
  63   0.0000       1.174602        31.9626 
  64   0.0000       1.188143        32.3310 
  65   0.0000       1.198895        32.6236 
  66   0.0000       1.455462        39.6051 
  67   0.0000       1.455462        39.6051 
  68   0.0000       1.650366        44.9088 
  69   0.0000       1.824357        49.6433 
  70   0.0000       1.838293        50.0225 
  71   0.0000       1.838293        50.0225 
  72   0.0000       1.880155        51.1616 
  73   0.0000       1.880615        51.1741 
  74   0.0000       2.057155        55.9780 
  75   0.0000       2.057155        55.9780 
  76   0.0000       2.101888        57.1953 
  77   0.0000       2.102692        57.2172 
  78   0.0000       2.251024        61.2535 
  79   0.0000       2.580052        70.2068 
  80   0.0000       2.580052        70.2068 
  81   0.0000       2.851771        77.6006 
  82   0.0000       3.057893        83.2095 
  83   0.0000       3.057893        83.2095 
  84   0.0000       3.084131        83.9235 
  85   0.0000       3.096048        84.2477 
  86   0.0000       3.100007        84.3555 
  87   0.0000       3.262780        88.7848 
  88   0.0000       3.262780        88.7848 
  89   0.0000       3.295787        89.6829 
  90   0.0000       3.295787        89.6829 
  91   0.0000       3.401830        92.5685 
  92   0.0000       3.727172       101.4215 
  93   0.0000       3.727172       101.4215 
  94   0.0000       3.752561       102.1124 
  95   0.0000       3.949544       107.4726 
  96   0.0000       3.949549       107.4727 
  97   0.0000       3.964516       107.8800 
  98   0.0000       3.964516       107.8800 
  99   0.0000       4.056867       110.3930 
 100   0.0000       4.181051       113.7722 
 101   0.0000       4.189380       113.9988 
 102   0.0000       4.483977       122.0152 
 103   0.0000       4.483977       122.0152 
 104   0.0000       4.964927       135.1025 
 105   0.0000       4.998278       136.0101 
 106   0.0000       5.074448       138.0827 
 107   0.0000       5.448652       148.2654 
 108   0.0000       5.448652       148.2654 
 109   0.0000       6.068448       165.1309 
 110   0.0000       6.068448       165.1309 
 111   0.0000       6.173556       167.9910 
 112   0.0000       6.173779       167.9971 
 113   0.0000       6.307510       171.6361 
 114   0.0000       6.425616       174.8499 
 115   0.0000       6.425616       174.8499 
 116   0.0000       6.481575       176.3726 
 117   0.0000       6.481965       176.3832 
 118   0.0000       6.839672       186.1169 
 119   0.0000       6.864139       186.7827 
 120   0.0000       6.864139       186.7827 
 121   0.0000       7.173971       195.2137 
 122   0.0000      10.210162       277.8326 
 123   0.0000      10.212752       277.9031 
 124   0.0000      10.212752       277.9031 
 125   0.0000      10.244981       278.7801 
 126   0.0000      10.353639       281.7368 
 127   0.0000      10.353639       281.7368 
 128   0.0000      10.595799       288.3263 
 129   0.0000      10.736123       292.1448 
 130   0.0000      11.378292       309.6191 
 131   0.0000      11.378292       309.6191 
 132   0.0000      11.380165       309.6700 
 133   0.0000      11.380203       309.6711 
 134   0.0000      11.477056       312.3066 
 135   0.0000      11.501715       312.9776 
 136   0.0000      11.777584       320.4844 
 137   0.0000      11.777584       320.4844 
 138   0.0000      12.139610       330.3356 

                 SPIN DOWN ORBITALS
  NO   OCC          E(Eh)            E(eV) 
   0   1.0000    -276.709911     -7529.6595 
   1   1.0000     -32.470770      -883.5746 
   2   1.0000     -28.132510      -765.5245 
   3   1.0000     -28.132510      -765.5245 
   4   1.0000     -28.131622      -765.5003 
   5   1.0000     -18.883195      -513.8378 
   6   1.0000      -3.593248       -97.7772 
   7   1.0000      -2.303982       -62.6945 
   8   1.0000      -2.290603       -62.3305 
   9   1.0000      -2.290603       -62.3305 
  10   1.0000      -0.810864       -22.0647 
  11   1.0000      -0.323614        -8.8060 
  12   1.0000      -0.271454        -7.3866 
  13   1.0000      -0.271454        -7.3866 
  14   1.0000      -0.242996        -6.6123 
  15   1.0000      -0.190509        -5.1840 
  16   0.0000      -0.169250        -4.6055 
  17   0.0000      -0.146560        -3.9881 
  18   0.0000      -0.146560        -3.9881 
  19   0.0000      -0.111075        -3.0225 
  20   0.0000      -0.014170        -0.3856 
  21   0.0000      -0.014170        -0.3856 
  22   0.0000       0.006943         0.1889 
  23   0.0000       0.012896         0.3509 
  24   0.0000       0.041808         1.1376 
  25   0.0000       0.041808         1.1377 
  26   0.0000       0.065483         1.7819 
  27   0.0000       0.067219         1.8291 
  28   0.0000       0.069126         1.8810 
  29   0.0000       0.072922         1.9843 
  30   0.0000       0.072922         1.9843 
  31   0.0000       0.088169         2.3992 
  32   0.0000       0.117099         3.1864 
  33   0.0000       0.192411         5.2358 
  34   0.0000       0.192686         5.2433 
  35   0.0000       0.192686         5.2433 
  36   0.0000       0.209945         5.7129 
  37   0.0000       0.209945         5.7129 
  38   0.0000       0.259840         7.0706 
  39   0.0000       0.294124         8.0035 
  40   0.0000       0.306415         8.3380 
  41   0.0000       0.322783         8.7834 
  42   0.0000       0.322783         8.7834 
  43   0.0000       0.334888         9.1128 
  44   0.0000       0.495145        13.4736 
  45   0.0000       0.572616        15.5817 
  46   0.0000       0.574653        15.6371 
  47   0.0000       0.612801        16.6752 
  48   0.0000       0.690903        18.8004 
  49   0.0000       0.690903        18.8004 
  50   0.0000       0.713701        19.4208 
  51   0.0000       0.829922        22.5833 
  52   0.0000       0.829922        22.5833 
  53   0.0000       0.922699        25.1079 
  54   0.0000       0.922699        25.1079 
  55   0.0000       0.974731        26.5238 
  56   0.0000       0.975809        26.5531 
  57   0.0000       0.975809        26.5531 
  58   0.0000       1.088491        29.6193 
  59   0.0000       1.091624        29.7046 
  60   0.0000       1.108267        30.1575 
  61   0.0000       1.136508        30.9260 
  62   0.0000       1.136508        30.9260 
  63   0.0000       1.200531        32.6681 
  64   0.0000       1.219391        33.1813 
  65   0.0000       1.239946        33.7407 
  66   0.0000       1.482578        40.3430 
  67   0.0000       1.482578        40.3430 
  68   0.0000       1.673487        45.5379 
  69   0.0000       1.844219        50.1837 
  70   0.0000       1.863881        50.7188 
  71   0.0000       1.863881        50.7188 
  72   0.0000       1.918061        52.1931 
  73   0.0000       1.919340        52.2279 
  74   0.0000       2.077203        56.5236 
  75   0.0000       2.077203        56.5236 
  76   0.0000       2.119593        57.6771 
  77   0.0000       2.123797        57.7915 
  78   0.0000       2.270934        61.7953 
  79   0.0000       2.605172        70.8903 
  80   0.0000       2.605172        70.8903 
  81   0.0000       2.890991        78.6679 
  82   0.0000       3.113431        84.7208 
  83   0.0000       3.113431        84.7208 
  84   0.0000       3.145439        85.5917 
  85   0.0000       3.148915        85.6863 
  86   0.0000       3.178070        86.4797 
  87   0.0000       3.331257        90.6481 
  88   0.0000       3.331258        90.6481 
  89   0.0000       3.346150        91.0534 
  90   0.0000       3.346150        91.0534 
  91   0.0000       3.448190        93.8300 
  92   0.0000       3.778333       102.8137 
  93   0.0000       3.778333       102.8137 
  94   0.0000       3.809395       103.6589 
  95   0.0000       3.986656       108.4824 
  96   0.0000       3.995855       108.7327 
  97   0.0000       4.019119       109.3658 
  98   0.0000       4.019119       109.3658 
  99   0.0000       4.093013       111.3766 
 100   0.0000       4.225912       114.9929 
 101   0.0000       4.245878       115.5362 
 102   0.0000       4.533581       123.3650 
 103   0.0000       4.533581       123.3650 
 104   0.0000       5.042051       137.2012 
 105   0.0000       5.079182       138.2116 
 106   0.0000       5.110635       139.0675 
 107   0.0000       5.528412       150.4357 
 108   0.0000       5.528412       150.4357 
 109   0.0000       6.116663       166.4429 
 110   0.0000       6.116663       166.4429 
 111   0.0000       6.213537       169.0789 
 112   0.0000       6.213696       169.0833 
 113   0.0000       6.348411       172.7490 
 114   0.0000       6.462047       175.8412 
 115   0.0000       6.462047       175.8412 
 116   0.0000       6.557483       178.4382 
 117   0.0000       6.557581       178.4409 
 118   0.0000       6.883627       187.3130 
 119   0.0000       6.913871       188.1360 
 120   0.0000       6.913871       188.1360 
 121   0.0000       7.211501       196.2349 
 122   0.0000      10.337122       281.2874 
 123   0.0000      10.337122       281.2874 
 124   0.0000      10.361177       281.9420 
 125   0.0000      10.390505       282.7400 
 126   0.0000      10.466836       284.8171 
 127   0.0000      10.466836       284.8171 
 128   0.0000      10.663492       290.1684 
 129   0.0000      10.803559       293.9798 
 130   0.0000      11.476714       312.2973 
 131   0.0000      11.479168       312.3640 
 132   0.0000      11.486643       312.5674 
 133   0.0000      11.486643       312.5674 
 134   0.0000      11.585249       315.2507 
 135   0.0000      11.589649       315.3704 
 136   0.0000      11.862632       322.7986 
 137   0.0000      11.862632       322.7986 
 138   0.0000      12.214180       332.3647 

                    ********************************
                    * MULLIKEN POPULATION ANALYSIS *
                    ********************************

--------------------------------------------
MULLIKEN ATOMIC CHARGES AND SPIN POPULATIONS
--------------------------------------------
   0 Co:    0.512481    2.242893
   1 O :   -0.512481    0.757107
Sum of atomic charges         :   -0.0000000
Sum of atomic spin populations:    3.0000000

-----------------------------------------------------
MULLIKEN REDUCED ORBITAL CHARGES AND SPIN POPULATIONS
-----------------------------------------------------
CHARGE
  0 Cos       :     6.878514  s :     6.878514
      pz      :     4.037002  p :    12.161842
      px      :     4.062420
      py      :     4.062420
      dz2     :     1.634276  d :     7.426648
      dxz     :     1.397116
      dyz     :     1.397116
      dx2y2   :     1.998767
      dxy     :     0.999374
      f0      :     0.005909  f :     0.019119
      f+1     :     0.006454
      f-1     :     0.006454
      f+2     :     0.000137
      f-2     :     0.000089
      f+3     :     0.000037
      f-3     :     0.000037
      g0      :     0.000398  g :     0.001396
      g+1     :     0.000468
      g-1     :     0.000468
      g+2     :     0.000009
      g-2     :     0.000002
      g+3     :     0.000004
      g-3     :     0.000004
      g+4     :     0.000043
      g-4     :     0.000000
  1 O s       :     3.977165  s :     3.977165
      pz      :     1.461144  p :     4.510212
      px      :     1.524534
      py      :     1.524534
      dz2     :     0.003657  d :     0.020276
      dxz     :     0.007840
      dyz     :     0.007840
      dx2y2   :     0.000627
      dxy     :     0.000312
      f0      :     0.001891  f :     0.004827
      f+1     :     0.001127
      f-1     :     0.001127
      f+2     :     0.000460
      f-2     :     0.000223
      f+3     :     0.000000
      f-3     :     0.000000

SPIN
  0 Cos       :    -0.040550  s :    -0.040550
      pz      :    -0.002081  p :     0.056004
      px      :     0.029043
      py      :     0.029043
      dz2     :     0.057352  d :     2.222799
      dxz     :     0.583169
      dyz     :     0.583169
      dx2y2   :    -0.000263
      dxy     :     0.999373
      f0      :     0.000123  f :     0.004841
      f+1     :     0.002296
      f-1     :     0.002296
      f+2     :     0.000072
      f-2     :     0.000089
      f+3     :    -0.000018
      f-3     :    -0.000018
      g0      :    -0.000144  g :    -0.000201
      g+1     :    -0.000017
      g-1     :    -0.000017
      g+2     :     0.000005
      g-2     :     0.000002
      g+3     :    -0.000001
      g-3     :    -0.000001
      g+4     :    -0.000027
      g-4     :    -0.000000
  1 O s       :     0.002618  s :     0.002618
      pz      :    -0.017210  p :     0.759436
      px      :     0.388323
      py      :     0.388323
      dz2     :    -0.000040  d :    -0.003935
      dxz     :    -0.002166
      dyz     :    -0.002166
      dx2y2   :     0.000126
      dxy     :     0.000312
      f0      :    -0.000040  f :    -0.001012
      f+1     :    -0.000628
      f-1     :    -0.000628
      f+2     :     0.000060
      f-2     :     0.000223
      f+3     :    -0.000000
      f-3     :    -0.000000


                     *******************************
                     * LOEWDIN POPULATION ANALYSIS *
                     *******************************

-------------------------------------------
LOEWDIN ATOMIC CHARGES AND SPIN POPULATIONS
-------------------------------------------
   0 Co:    0.545442    2.325146
   1 O :   -0.545442    0.674854

----------------------------------------------------
LOEWDIN REDUCED ORBITAL CHARGES AND SPIN POPULATIONS
----------------------------------------------------
CHARGE
  0 Cos       :     6.590910  s :     6.590910
      pz      :     4.132903  p :    12.233469
      px      :     4.050283
      py      :     4.050283
      dz2     :     1.728305  d :     7.462467
      dxz     :     1.380779
      dyz     :     1.380779
      dx2y2   :     1.980900
      dxy     :     0.991703
      f0      :     0.069345  f :     0.157729
      f+1     :     0.043498
      f-1     :     0.043498
      f+2     :     0.000862
      f-2     :     0.000452
      f+3     :     0.000037
      f-3     :     0.000037
      g0      :     0.005095  g :     0.009983
      g+1     :     0.002384
      g-1     :     0.002384
      g+2     :     0.000055
      g-2     :     0.000015
      g+3     :     0.000004
      g-3     :     0.000004
      g+4     :     0.000043
      g-4     :     0.000000
  1 O s       :     3.593478  s :     3.593478
      pz      :     1.656798  p :     4.511931
      px      :     1.427567
      py      :     1.427567
      dz2     :     0.147536  d :     0.275335
      dxz     :     0.057623
      dyz     :     0.057623
      dx2y2   :     0.008905
      dxy     :     0.003649
      f0      :     0.075588  f :     0.164698
      f+1     :     0.037825
      f-1     :     0.037825
      f+2     :     0.009278
      f-2     :     0.004181
      f+3     :     0.000000
      f-3     :     0.000000

SPIN
  0 Cos       :    -0.028825  s :    -0.028825
      pz      :    -0.003271  p :     0.123208
      px      :     0.063240
      py      :     0.063240
      dz2     :     0.053590  d :     2.185630
      dxz     :     0.569862
      dyz     :     0.569862
      dx2y2   :     0.000612
      dxy     :     0.991703
      f0      :     0.001282  f :     0.042869
      f+1     :     0.020499
      f-1     :     0.020499
      f+2     :     0.000173
      f-2     :     0.000452
      f+3     :    -0.000018
      f-3     :    -0.000018
      g0      :    -0.000090  g :     0.002264
      g+1     :     0.001197
      g-1     :     0.001197
      g+2     :    -0.000025
      g-2     :     0.000015
      g+3     :    -0.000001
      g-3     :    -0.000001
      g+4     :    -0.000027
      g-4     :    -0.000000
  1 O s       :     0.001002  s :     0.001002
      pz      :    -0.023130  p :     0.624658
      px      :     0.323894
      py      :     0.323894
      dz2     :    -0.000220  d :     0.024605
      dxz     :     0.010827
      dyz     :     0.010827
      dx2y2   :    -0.000477
      dxy     :     0.003649
      f0      :    -0.000312  f :     0.024589
      f+1     :     0.010502
      f-1     :     0.010502
      f+2     :    -0.000283
      f-2     :     0.004181
      f+3     :    -0.000000
      f-3     :    -0.000000


                      *****************************
                      * MAYER POPULATION ANALYSIS *
                      *****************************

  NA   - Mulliken gross atomic population
  ZA   - Total nuclear charge
  QA   - Mulliken gross atomic charge
  VA   - Mayer's total valence
  BVA  - Mayer's bonded valence
  FA   - Mayer's free valence

  ATOM       NA         ZA         QA         VA         BVA        FA
  0 Co    26.4875    27.0000     0.5125     3.8973     2.0508     1.8465
  1 O      8.5125     8.0000    -0.5125     2.3560     2.0508     0.3052

  Mayer bond orders larger than 0.100000
B(  0-Co,  1-O ) :   2.0508 

-------
TIMINGS
-------

Total SCF time: 0 days 0 hours 0 min 9 sec 

Total time                  ....       9.729 sec
Sum of individual times     ....       9.488 sec  ( 97.5%)

Fock matrix formation       ....       8.841 sec  ( 90.9%)
  Split-RI-J                ....       6.711 sec  ( 75.9% of F)
  XC integration            ....       1.755 sec  ( 19.8% of F)
    Basis function eval.    ....       0.234 sec  ( 13.3% of XC)
    Density eval.           ....       0.267 sec  ( 15.2% of XC)
    XC-Functional eval.     ....       0.066 sec  (  3.7% of XC)
    XC-Potential eval.      ....       0.697 sec  ( 39.7% of XC)
Diagonalization             ....       0.236 sec  (  2.4%)
Density matrix formation    ....       0.030 sec  (  0.3%)
Population analysis         ....       0.007 sec  (  0.1%)
Initial guess               ....       0.115 sec  (  1.2%)
Orbital Transformation      ....       0.000 sec  (  0.0%)
Orbital Orthonormalization  ....       0.000 sec  (  0.0%)
DIIS solution               ....       0.093 sec  (  1.0%)
Grid generation             ....       0.166 sec  (  1.7%)


-------------------------------------------------------------------------------
                          DFT DISPERSION CORRECTION                            
                                                                               
                              DFTD3 V3.1  Rev 1                                
                          USING Becke-Johnson damping                          
-------------------------------------------------------------------------------
The TPSS functional is recognized
Active option DFTDOPT                   ...         4   

molecular C6(AA) [au] = 328.680985 


            DFT-D V3
 parameters
 s6 scaling factor         :     1.0000 
 a1 scaling factor         :     0.4535 
 s8 scaling factor         :     1.9435 
 a2 scaling factor         :     4.4752 
 ad hoc parameters k1-k3   :    16.0000     1.3333    -4.0000 

 Edisp/kcal,au: -0.448873066746  -0.000715324688 
 E6   /kcal   :  -0.179998328 
 E8   /kcal   :  -0.268874739 
 % E8         :  59.899949237 

-------------------------   ----------------
Dispersion correction           -0.000715325
-------------------------   ----------------


-------------------------   --------------------
FINAL SINGLE POINT ENERGY     -1458.069073570501
-------------------------   --------------------


                            ***************************************
                            *     ORCA property calculations      *
                            ***************************************

                                    ---------------------
                                    Active property flags
                                    ---------------------
   (+) Dipole Moment


------------------------------------------------------------------------------
                       ORCA ELECTRIC PROPERTIES CALCULATION
------------------------------------------------------------------------------

Dipole Moment Calculation                       ... on
Quadrupole Moment Calculation                   ... off
Polarizability Calculation                      ... off
GBWName                                         ... 41_CoO.gbw
Electron density file                           ... 41_CoO.scfp
The origin for moment calculation is the CENTER OF MASS  = ( 0.000000,  0.000000  1.009712)

-------------
DIPOLE MOMENT
-------------
                                X             Y             Z
Electronic contribution:     -0.00000      -0.00000      -3.27694
Nuclear contribution   :      0.00000       0.00000       1.61802
                        -----------------------------------------
Total Dipole Moment    :     -0.00000      -0.00000      -1.65892
                        -----------------------------------------
Magnitude (a.u.)       :      1.65892
Magnitude (Debye)      :      4.21665



--------------------
Rotational spectrum 
--------------------
 
Rotational constants in cm-1:     0.000000     0.507011     0.507011 
Rotational constants in MHz :     0.000000 15199.819890 15199.819890 

 Dipole components along the rotational axes: 
x,y,z [a.u.] :    -1.658924    -0.000000    -0.000000 
x,y,z [Debye]:    -4.216650    -0.000000    -0.000000 

 

Timings for individual modules:

Sum of individual times         ...       13.409 sec (=   0.223 min)
GTO integral calculation        ...        3.348 sec (=   0.056 min)  25.0 %
SCF iterations                  ...       10.061 sec (=   0.168 min)  75.0 %
                             ****ORCA TERMINATED NORMALLY****
TOTAL RUN TIME: 0 days 0 hours 0 minutes 13 seconds 999 msec
