
                                 *****************
                                 * O   R   C   A *
                                 *****************

           --- An Ab Initio, DFT and Semiempirical electronic structure package ---

                  #######################################################
                  #                        -***-                        #
                  #          Department of theory and spectroscopy      #
                  #               Directorship: Frank Neese             #
                  #        Max Planck Institute fuer Kohlenforschung    #
                  #                Kaiser Wilhelm Platz 1               #
                  #                 D-45470 Muelheim/Ruhr               #
                  #                      Germany                        #
                  #                                                     #
                  #                  All rights reserved                #
                  #                        -***-                        #
                  #######################################################


                         Program Version 4.2.0 -  RELEASE  -


 With contributions from (in alphabetic order):
   Daniel Aravena         : Magnetic Suceptibility
   Michael Atanasov       : Ab Initio Ligand Field Theory (pilot matlab implementation)
   Alexander A. Auer      : GIAO ZORA, VPT2
   Ute Becker             : Parallelization
   Giovanni Bistoni       : ED, misc. LED, open-shell LED, HFLED
   Martin Brehm           : Molecular dynamics
   Dmytro Bykov           : SCF Hessian
   Vijay G. Chilkuri      : MRCI spin determinant printing, contributions to CSF-ICE
   Dipayan Datta          : RHF DLPNO-CCSD density
   Achintya Kumar Dutta   : EOM-CC, STEOM-CC
   Dmitry Ganyushin       : Spin-Orbit,Spin-Spin,Magnetic field MRCI
   Miquel Garcia          : C-PCM Hessian, Gaussian charge scheme
   Yang Guo               : DLPNO-NEVPT2, CIM, IAO-localization
   Andreas Hansen         : Spin unrestricted coupled pair/coupled cluster methods
   Benjamin Helmich-Paris : CASSCF linear response (MC-RPA)
   Lee Huntington         : MR-EOM, pCC
   Robert Izsak           : Overlap fitted RIJCOSX, COSX-SCS-MP3, EOM
   Christian Kollmar      : KDIIS, OOCD, Brueckner-CCSD(T), CCSD density
   Simone Kossmann        : Meta GGA functionals, TD-DFT gradient, OOMP2, MP2 Hessian
   Martin Krupicka        : AUTO-CI
   Lucas Lang             : DCDCAS
   Dagmar Lenk            : GEPOL surface, SMD
   Dimitrios Liakos       : Extrapolation schemes; Compound Job, initial MDCI parallelization
   Dimitrios Manganas     : Further ROCIS development; embedding schemes
   Dimitrios Pantazis     : SARC Basis sets
   Taras Petrenko         : DFT Hessian,TD-DFT gradient, ASA, ECA, R-Raman, ABS, FL, XAS/XES, NRVS
   Peter Pinski           : DLPNO-MP2, DLPNO-MP2 Gradient
   Christoph Reimann      : Effective Core Potentials
   Marius Retegan         : Local ZFS, SOC
   Christoph Riplinger    : Optimizer, TS searches, QM/MM, DLPNO-CCSD(T), (RO)-DLPNO pert. Triples
   Tobias Risthaus        : Range-separated hybrids, TD-DFT gradient, RPA, STAB
   Michael Roemelt        : Original ROCIS implementation
   Masaaki Saitow         : Open-shell DLPNO-CCSD energy and density
   Barbara Sandhoefer     : DKH picture change effects
   Avijit Sen             : IP-ROCIS
   Kantharuban Sivalingam : CASSCF convergence, NEVPT2, FIC-MRCI
   Bernardo de Souza      : ESD, SOC TD-DFT
   Georgi Stoychev        : AutoAux, RI-MP2 NMR
   Willem Van den Heuvel  : Paramagnetic NMR
   Boris Wezisla          : Elementary symmetry handling
   Frank Wennmohs         : Technical directorship


 We gratefully acknowledge several colleagues who have allowed us to
 interface, adapt or use parts of their codes:
   Stefan Grimme, W. Hujo, H. Kruse,             : VdW corrections, initial TS optimization,
                  C. Bannwarth                     DFT functionals, gCP, sTDA/sTD-DF
   Ed Valeev, F. Pavosevic, A. Kumar             : LibInt (2-el integral package), F12 methods
   Garnet Chan, S. Sharma, J. Yang, R. Olivares  : DMRG
   Ulf Ekstrom                                   : XCFun DFT Library
   Mihaly Kallay                                 : mrcc  (arbitrary order and MRCC methods)
   Andreas Klamt, Michael Diedenhofen            : otool_cosmo (COSMO solvation model)
   Jiri Pittner, Ondrej Demel                    : Mk-CCSD
   Frank Weinhold                                : gennbo (NPA and NBO analysis)
   Christopher J. Cramer and Donald G. Truhlar   : smd solvation model
   Lars Goerigk                                  : TD-DFT with DH, B97 family of functionals
   V. Asgeirsson, H. Jonsson                     : NEB implementation
   FAccTs GmbH                                   : IRC, NEB, NEB-TS, Multilevel, MM, QM/MM, CI optimization
   S Lehtola, MJT Oliveira, MAL Marques          : LibXC Library


 Your calculation uses the libint2 library for the computation of 2-el integrals
 For citations please refer to: http://libint.valeyev.net

 Your ORCA version has been built with support for libXC version: 4.2.3
 For citations please refer to: https://tddft.org/programs/libxc/

 This ORCA versions uses:
   CBLAS   interface :  Fast vector & matrix operations
   LAPACKE interface :  Fast linear algebra routines
   SCALAPACK package :  Parallel linear algebra routines


Your calculation utilizes the atom-pairwise dispersion correction
with the Becke-Johnson damping scheme (D3BJ)
Cite in your paper:
S.Grimme, S.Ehrlich, L.Goerigk, J Comput Chem, (2011), 32, 1456–1465 
S.Grimme, J.Antony, S.Ehrlich and H.Krieg, J.Chem.Phys., 132, (2010), 154104 
   

----- Orbital basis set information -----
Your calculation utilizes the basis: aug-cc-pVTZ 
    H, B-Ne : Obtained from the ccRepo (grant-hill.group.shef.ac.uk/ccrepo) Feb. 2017
              R. A. Kendall, T. H. Dunning, Jr., R. J. Harrison, J. Chem. Phys. 96, 6796 (1992)
         He : Obtained from the ccRepo (grant-hill.group.shef.ac.uk/ccrepo) Feb. 2017
              D. E. Woon, T. H. Dunning, Jr., J. Chem. Phys. 100, 2975 (1994)
  Li-Be, Na : Obtained from the ccRepo (grant-hill.group.shef.ac.uk/ccrepo) Feb. 2017
              B. P. Prascher, D. E. Woon, K. A. Peterson, T. H. Dunning, Jr., A. K. Wilson, Theor. Chem. Acc. 128, 69 (2011)
         Mg : Obtained from the Peterson Research Group Website (tyr0.chem.wsu.edu/~kipeters) Feb. 2017
              B. P. Prascher, D. E. Woon, K. A. Peterson, T. H. Dunning, Jr., A. K. Wilson, Theor. Chem. Acc. 128, 69 (2011)
      Al-Ar : Obtained from the ccRepo (grant-hill.group.shef.ac.uk/ccrepo) Feb. 2017
              D. E. Woon, T. H. Dunning, Jr., J. Chem. Phys. 98, 1358 (1993)
      Sc-Zn : Obtained from the ccRepo (grant-hill.group.shef.ac.uk/ccrepo) Feb. 2017
              N. B. Balabanov, K. A. Peterson, J. Chem. Phys. 123, 064107 (2005)
              N. B. Balabanov, K. A. Peterson, J. Chem. Phys. 125, 074110 (2006)
      Ga-Kr : Obtained from the ccRepo (grant-hill.group.shef.ac.uk/ccrepo) Feb. 2017
              A. K. Wilson, D. E. Woon, K. A. Peterson, T. H. Dunning, Jr., J. Chem. Phys. 110, 7667 (1999)
     Ag, Au : Obtained from the Peterson Research Group Website (tyr0.chem.wsu.edu/~kipeters) Feb. 2017
              K. A. Peterson, C. Puzzarini, Theor. Chem. Acc. 114, 283 (2005)

----- AuxJ basis set information -----
Your calculation utilizes the auxiliary basis: def2/J
   F. Weigend, Phys. Chem. Chem. Phys. 8, 1057 (2006).

================================================================================
                                        WARNINGS
                       Please study these warnings very carefully!
================================================================================


WARNING: your system is open-shell and RHF/RKS was chosen
  ===> : WILL SWITCH to UHF/UKS


INFO   : the flag for use of LIBINT has been found!

================================================================================
                                       INPUT FILE
================================================================================
NAME = 42_CoS.in
|  1> #
|  2> # 42_CoS tpss/aug-cc-pvtz
|  3> #
|  4> ! tpss d3bj aug-cc-pvtz def2/j grid4 nofinalgrid
|  5> 
|  6> *xyz 0 4
|  7>   Co  0.00000000000000      0.00000000000000      0.00920129654260
|  8>   S   0.00000000000000      0.00000000000000      1.99079870345740
|  9> *
| 10> 
| 11> %pal
| 12> nprocs 24
| 13> end
| 14> 
| 15> 
| 16>                          ****END OF INPUT****
================================================================================

                       ****************************
                       * Single Point Calculation *
                       ****************************

---------------------------------
CARTESIAN COORDINATES (ANGSTROEM)
---------------------------------
  Co     0.000000    0.000000    0.009201
  S      0.000000    0.000000    1.990799

----------------------------
CARTESIAN COORDINATES (A.U.)
----------------------------
  NO LB      ZA    FRAG     MASS         X           Y           Z
   0 Co   27.0000    0    58.930    0.000000    0.000000    0.017388
   1 S    16.0000    0    32.060    0.000000    0.000000    3.762064

--------------------------------
INTERNAL COORDINATES (ANGSTROEM)
--------------------------------
 Co     0   0   0     0.000000000000     0.00000000     0.00000000
 S      1   0   0     1.981597406915     0.00000000     0.00000000

---------------------------
INTERNAL COORDINATES (A.U.)
---------------------------
 Co     0   0   0     0.000000000000     0.00000000     0.00000000
 S      1   0   0     3.744676406757     0.00000000     0.00000000

---------------------
BASIS SET INFORMATION
---------------------
There are 2 groups of distinct atoms

 Group   1 Type Co  : 116s77p23d3f2g contracted to 8s7p5d3f2g pattern {19191919191911/151515151511/77711/111/11}
 Group   2 Type S   : 42s17p3d2f contracted to 6s5p3d2f pattern {131313111/77111/111/11}

Atom   0Co   basis set group =>   1
Atom   1S    basis set group =>   2
---------------------------------
AUXILIARY/J BASIS SET INFORMATION
---------------------------------
There are 2 groups of distinct atoms

 Group   1 Type Co  : 19s5p5d3f3g contracted to 8s5p5d2f3g pattern {121111111/11111/11111/21/111}
 Group   2 Type S   : 14s5p5d2f1g contracted to 8s4p3d1f1g pattern {71111111/2111/311/2/1}

Atom   0Co   basis set group =>   1
Atom   1S    basis set group =>   2


           ************************************************************
           *        Program running with 24 parallel MPI-processes    *
           *              working on a common directory               *
           ************************************************************
------------------------------------------------------------------------------
                           ORCA GTO INTEGRAL CALCULATION
                           -- RI-GTO INTEGRALS CHOSEN --
------------------------------------------------------------------------------

                         BASIS SET STATISTICS AND STARTUP INFO

Gaussian basis set:
 # of primitive gaussian shells          ...  285
 # of primitive gaussian functions       ...  623
 # of contracted shells                  ...   41
 # of contracted basis functions         ...  143
 Highest angular momentum                ...    4
 Maximum contraction depth               ...   19
Auxiliary gaussian basis set:
 # of primitive gaussian shells          ...   62
 # of primitive gaussian functions       ...  184
 # of contracted shells                  ...   40
 # of contracted aux-basis functions     ...  140
 Highest angular momentum                ...    4
 Maximum contraction depth               ...   12
Ratio of auxiliary to basis functions    ...  0.98
Integral package used                  ... LIBINT
 One Electron integrals                  ... done
 Ordering auxiliary basis shells         ... done
 Integral threshhold             Thresh  ...  1.000e-10
 Primitive cut-off               TCut    ...  1.000e-11
 Pre-screening matrix                    ... done
 Shell pair data                         ... 
 Ordering of the shell pairs             ... done (   0.000 sec) 861 of 861 pairs
 Determination of significant pairs      ... done (   0.000 sec)
 Creation of shell pair data             ... done (   0.001 sec)
 Storage of shell pair data              ... done (   0.265 sec)
 Shell pair data done in (   0.266 sec)
 Computing two index integrals           ... done
 Cholesky decomposition of the V-matrix  ... done


Timings:
 Total evaluation time                   ...   3.130 sec (  0.052 min)
 One electron matrix time                ...   0.056 sec (  0.001 min) =  1.8%
 Schwartz matrix evaluation time         ...   2.772 sec (  0.046 min) = 88.6%
 Two index repulsion integral time       ...   0.001 sec (  0.000 min) =  0.0%
 Cholesky decomposition of V             ...   0.001 sec (  0.000 min) =  0.0%
 Three index repulsion integral time     ...   0.000 sec (  0.000 min) =  0.0%



           ************************************************************
           *        Program running with 24 parallel MPI-processes    *
           *              working on a common directory               *
           ************************************************************
-------------------------------------------------------------------------------
                                 ORCA SCF
-------------------------------------------------------------------------------

------------
SCF SETTINGS
------------
Hamiltonian:
 Density Functional     Method          .... DFT(GTOs)
 Exchange Functional    Exchange        .... TPSS
 Correlation Functional Correlation     .... TPSS
 LDA part of GGA corr.  LDAOpt          .... PW91-LDA
 Gradients option       PostSCFGGA      .... off
   Density functional embedding theory  .... OFF
   NL short-range parameter             ....  5.000000
 RI-approximation to the Coulomb term is turned on
   Number of auxiliary basis functions  .... 140


General Settings:
 Integral files         IntName         .... 42_CoS
 Hartree-Fock type      HFTyp           .... UHF
 Total Charge           Charge          ....    0
 Multiplicity           Mult            ....    4
 Number of Electrons    NEL             ....   43
 Basis Dimension        Dim             ....  143
 Nuclear Repulsion      ENuc            ....    115.3637732810 Eh

Convergence Acceleration:
 DIIS                   CNVDIIS         .... on
   Start iteration      DIISMaxIt       ....    12
   Startup error        DIISStart       ....  0.200000
   # of expansion vecs  DIISMaxEq       ....     5
   Bias factor          DIISBfac        ....   1.050
   Max. coefficient     DIISMaxC        ....  10.000
 Newton-Raphson         CNVNR           .... off
 SOSCF                  CNVSOSCF        .... off
 Level Shifting         CNVShift        .... on
   Level shift para.    LevelShift      ....    0.2500
   Turn off err/grad.   ShiftErr        ....    0.0010
 Zerner damping         CNVZerner       .... off
 Static damping         CNVDamp         .... on
   Fraction old density DampFac         ....    0.7000
   Max. Damping (<1)    DampMax         ....    0.9800
   Min. Damping (>=0)   DampMin         ....    0.0000
   Turn off err/grad.   DampErr         ....    0.1000
 Fernandez-Rico         CNVRico         .... off

SCF Procedure:
 Maximum # iterations   MaxIter         ....   125
 SCF integral mode      SCFMode         .... Direct
   Integral package                     .... LIBINT
 Reset frequency        DirectResetFreq ....    20
 Integral Threshold     Thresh          ....  1.000e-10 Eh
 Primitive CutOff       TCut            ....  1.000e-11 Eh

Convergence Tolerance:
 Convergence Check Mode ConvCheckMode   .... Total+1el-Energy
 Convergence forced     ConvForced      .... 0
 Energy Change          TolE            ....  1.000e-06 Eh
 1-El. energy change                    ....  1.000e-03 Eh
 DIIS Error             TolErr          ....  1.000e-06


Diagonalization of the overlap matrix:
Smallest eigenvalue                        ... 8.498e-05
Time for diagonalization                   ...    0.005 sec
Threshold for overlap eigenvalues          ... 1.000e-08
Number of eigenvalues below threshold      ... 0
Time for construction of square roots      ...    0.002 sec
Total time needed                          ...    0.008 sec

-------------------
DFT GRID GENERATION
-------------------

General Integration Accuracy     IntAcc      ...  4.670
Radial Grid Type                 RadialGrid  ... Gauss-Chebyshev
Angular Grid (max. acc.)         AngularGrid ... Lebedev-302
Angular grid pruning method      GridPruning ... 3 (G Style)
Weight generation scheme         WeightScheme... Becke
Basis function cutoff            BFCut       ...    1.0000e-10
Integration weight cutoff        WCut        ...    1.0000e-14
Grids for H and He will be reduced by one unit

# of grid points (after initial pruning)     ...  16486 (   0.0 sec)
# of grid points (after weights+screening)   ...  16457 (   0.0 sec)
nearest neighbour list constructed           ...    0.0 sec
Grid point re-assignment to atoms done       ...    0.0 sec
Grid point division into batches done        ...    0.1 sec
Reduced shell lists constructed in    0.1 sec

Total number of grid points                  ...    16457
Total number of batches                      ...      258
Average number of points per batch           ...       63
Average number of grid points per atom       ...     8228
Average number of shells per batch           ...    13.75 (33.54%)
Average number of basis functions per batch  ...    33.92 (23.72%)
Average number of large shells per batch     ...     7.42 (53.94%)
Average number of large basis fcns per batch ...    19.08 (56.27%)
Maximum spatial batch extension              ...  24.49, 24.19, 17.54 au
Average spatial batch extension              ...   0.85,  0.83,  0.64 au

Time for grid setup =    0.161 sec

------------------------------
INITIAL GUESS: MODEL POTENTIAL
------------------------------
Loading Hartree-Fock densities                     ... done
Calculating cut-offs                               ... done
Setting up the integral package                    ... done
Initializing the effective Hamiltonian             ... done
Starting the Coulomb interaction                   ... done (   0.0 sec)
Reading the grid                                   ... done
Mapping shells                                     ... done
Starting the XC term evaluation                    ... done (   0.0 sec)
  promolecular density results
     # of electrons  =     43.000037366
     EX              =    -82.625555999
     EC              =     -1.825284489
     EX+EC           =    -84.450840488
Transforming the Hamiltonian                       ... done (   0.0 sec)
Diagonalizing the Hamiltonian                      ... done (   0.0 sec)
Back transforming the eigenvectors                 ... done (   0.0 sec)
Now organizing SCF variables                       ... done
                      ------------------
                      INITIAL GUESS DONE (   0.3 sec)
                      ------------------
--------------
SCF ITERATIONS
--------------
ITER       Energy         Delta-E        Max-DP      RMS-DP      [F,P]     Damp
               ***  Starting incremental Fock matrix formation  ***
  0  -1780.9398419109   0.000000000000 0.09142937  0.00142750  0.3380303 0.7000
  1  -1780.9733242556  -0.033482344717 0.03177137  0.00074312  0.1163285 0.7000
                               ***Turning on DIIS***
  2  -1781.0042603969  -0.030936141268 0.07731766  0.00144769  0.0433381 0.0000
  3  -1780.9808776104   0.023382786486 0.01199558  0.00019960  0.2562086 0.7000
  4  -1781.0037243508  -0.022846740358 0.01791141  0.00021810  0.2050763 0.7000
  5  -1781.0255340042  -0.021809653391 0.02166034  0.00022614  0.1501577 0.7000
  6  -1781.0422326390  -0.016698634863 0.07263543  0.00070865  0.0982479 0.0000
  7  -1781.0575205573  -0.015287918239 0.00666067  0.00012693  0.0425404 0.0000
  8  -1781.0591628720  -0.001642314716 0.00508802  0.00009161  0.0178522 0.0000
  9  -1781.0596997278  -0.000536855783 0.00320944  0.00004893  0.0117087 0.0000
 10  -1781.0598555368  -0.000155809073 0.00213228  0.00003107  0.0050758 0.0000
 11  -1781.0599126392  -0.000057102358 0.00122268  0.00001589  0.0021308 0.0000
 12  -1781.0599216412  -0.000009002014 0.94193311  0.00574660  0.0009690 0.0000
 13  -1781.0565342293   0.003387411857 0.00000598  0.00000010  0.1894803 0.7000
 14  -1781.0565377866  -0.000003557290 0.00001577  0.00000019  0.1894722 0.7000
 15  -1781.0565450909  -0.000007304258 0.00019078  0.00000205  0.1894494 0.7000
 16  -1781.0566161309  -0.000071040037 0.00026866  0.00000270  0.1892910 0.7000
 17  -1781.0567010457  -0.000084914752 0.06898490  0.00072760  0.1890886 0.7000
 18  -1781.0675836683  -0.010882622654 0.10417870  0.00114224  0.0758034 0.0000
 19  -1781.0344344117   0.033149256600 0.01917484  0.00018107  0.2041661 0.7000
               *** Restarting incremental Fock matrix formation ***
                                   *** Resetting DIIS ***
 20  -1781.0519446670  -0.017510255305 0.08354853  0.00090745  0.1662551 0.7000
 21  -1781.0640788406  -0.012134173536 0.17268497  0.00157876  0.0880323 0.0000
 22  -1780.9607441186   0.103334721995 0.00920934  0.00012329  0.3024901 0.7000
 23  -1780.9810663178  -0.020322199214 0.01163123  0.00015128  0.2729316 0.7000
 24  -1781.0032261710  -0.022159853162 0.01123436  0.00014735  0.2389270 0.7000
 25  -1781.0221980664  -0.018971895398 0.00910943  0.00012633  0.2071912 0.7000
 26  -1781.0333667286  -0.011168662259 0.03735229  0.00039938  0.1802315 0.7000
 27  -1781.0657991831  -0.032432454484 0.03142057  0.00030104  0.1037926 0.7000
 28  -1781.0792591138  -0.013459930684 0.07341876  0.00066077  0.0500522 0.0000
 29  -1781.0816252845  -0.002366170766 0.00493084  0.00008339  0.0639824 0.0000
 30  -1781.0842599159  -0.002634631311 0.00583210  0.00006376  0.0448918 0.0000
 31  -1781.0857218610  -0.001461945101 0.00538122  0.00005011  0.0316614 0.0000
 32  -1781.0865110867  -0.000789225695 0.00525275  0.00004601  0.0213309 0.0000
 33  -1781.0869653725  -0.000454285851 0.00574563  0.00005031  0.0123549 0.0000
 34  -1781.0872034279  -0.000238055381 0.00356903  0.00003048  0.0028982 0.0000
 35  -1781.0872329535  -0.000029525567 0.00626700  0.00005085  0.0007902 0.0000
 36  -1781.0871932376   0.000039715838 0.00011404  0.00000164  0.0063896 0.0000
 37  -1781.0871992603  -0.000006022637 0.00010646  0.00000117  0.0059086 0.0000
 38  -1781.0872031963  -0.000003936083 0.00005261  0.00000067  0.0056011 0.0000
 39  -1781.0872041222  -0.000000925830 0.00051567  0.00000727  0.0055244 0.0000
               *** Restarting incremental Fock matrix formation ***
                                   *** Resetting DIIS ***
 40  -1781.0871669166   0.000037205574 0.00856026  0.00009046  0.0049977 0.0000
 41  -1781.0868741420   0.000292774580 0.00221912  0.00004520  0.0192862 0.0000
 42  -1781.0870850260  -0.000210883948 0.00121368  0.00001473  0.0093608 0.0000
 43  -1781.0871485511  -0.000063525124 0.00106695  0.00000991  0.0058084 0.0000
 44  -1781.0871754890  -0.000026937922 0.00114564  0.00000994  0.0038180 0.0000
 45  -1781.0871912900  -0.000015801009 0.00089488  0.00000769  0.0016671 0.0000
 46  -1781.0871957351  -0.000004445125 0.00188165  0.00001474  0.0002854 0.0000
 47  -1781.0871939274   0.000001807764 0.00005101  0.00000062  0.0016319 0.0000
 48  -1781.0871941880  -0.000000260595 0.00005412  0.00000052  0.0015344 0.0000
 49  -1781.0871942916  -0.000000103614 0.00004257  0.00000037  0.0014455 0.0000
 50  -1781.0871945025  -0.000000210963 0.00002254  0.00000026  0.0013824 0.0000
 51  -1781.0871944846   0.000000017995 0.00150053  0.00001508  0.0013472 0.0000
 52  -1781.0871909495   0.000003535072 0.00041758  0.00000860  0.0028062 0.0000
 53  -1781.0871931318  -0.000002182310 0.00015695  0.00000288  0.0014732 0.0000
 54  -1781.0871948868  -0.000001754995 0.00078779  0.00000671  0.0009645 0.0000
 55  -1781.0871970186  -0.000002131861 0.00011517  0.00000150  0.0001364 0.0000
 56  -1781.0871967096   0.000000309059 0.00003929  0.00000055  0.0000529 0.0000
 57  -1781.0871970207  -0.000000311161 0.00007950  0.00000107  0.0000247 0.0000
                 **** Energy Check signals convergence ****

               *****************************************************
               *                     SUCCESS                       *
               *           SCF CONVERGED AFTER  58 CYCLES          *
               *****************************************************


----------------
TOTAL SCF ENERGY
----------------

Total Energy       :        -1781.08719695 Eh          -48465.84659 eV

Components:
Nuclear Repulsion  :          115.36377328 Eh            3139.20787 eV
Electronic Energy  :        -1896.45097023 Eh          -51605.05445 eV
One Electron Energy:        -2696.00959355 Eh          -73362.15070 eV
Two Electron Energy:          799.55862332 Eh           21757.09625 eV

Virial components:
Potential Energy   :        -3559.00918672 Eh          -96845.56350 eV
Kinetic Energy     :         1777.92198978 Eh           48379.71692 eV
Virial Ratio       :            2.00178028


DFT components:
N(Alpha)           :       23.000011753940 electrons
N(Beta)            :       20.000011934966 electrons
N(Total)           :       43.000023688906 electrons
E(X)               :      -83.227125204424 Eh       
E(C)               :       -1.836003176936 Eh       
E(XC)              :      -85.063128381361 Eh       
DFET-embed. en.    :        0.000000000000 Eh       

---------------
SCF CONVERGENCE
---------------

  Last Energy change         ...    7.2100e-08  Tolerance :   1.0000e-06
  Last MAX-Density change    ...    1.2732e-05  Tolerance :   1.0000e-05
  Last RMS-Density change    ...    1.8359e-07  Tolerance :   1.0000e-06
  Last DIIS Error            ...    8.2227e-06  Tolerance :   1.0000e-06

             **** THE GBW FILE WAS UPDATED (42_CoS.gbw) ****
             **** DENSITY FILE WAS UPDATED (42_CoS.scfp) ****
             **** ENERGY FILE WAS UPDATED (42_CoS.en.tmp) ****
----------------------
UHF SPIN CONTAMINATION
----------------------

Warning: in a DFT calculation there is little theoretical justification to 
         calculate <S**2> as in Hartree-Fock theory. We will do it anyways
         but you should keep in mind that the values have only limited relevance

Expectation value of <S**2>     :     3.763362
Ideal value S*(S+1) for S=1.5   :     3.750000
Deviation                       :     0.013362

             **** THE GBW FILE WAS UPDATED (42_CoS.gbw) ****
             **** DENSITY FILE WAS UPDATED (42_CoS.scfp) ****
----------------
ORBITAL ENERGIES
----------------
                 SPIN UP ORBITALS
  NO   OCC          E(Eh)            E(eV) 
   0   1.0000    -276.691713     -7529.1643 
   1   1.0000     -88.371184     -2404.7022 
   2   1.0000     -32.485071      -883.9637 
   3   1.0000     -28.142073      -765.7847 
   4   1.0000     -28.142073      -765.7847 
   5   1.0000     -28.133949      -765.5637 
   6   1.0000      -7.726693      -210.2540 
   7   1.0000      -5.705675      -155.2593 
   8   1.0000      -5.705675      -155.2593 
   9   1.0000      -5.703037      -155.1875 
  10   1.0000      -3.668639       -99.8287 
  11   1.0000      -2.373821       -64.5949 
  12   1.0000      -2.373821       -64.5949 
  13   1.0000      -2.364494       -64.3411 
  14   1.0000      -0.614435       -16.7196 
  15   1.0000      -0.306810        -8.3487 
  16   1.0000      -0.305928        -8.3247 
  17   1.0000      -0.305928        -8.3247 
  18   1.0000      -0.298899        -8.1335 
  19   1.0000      -0.256856        -6.9894 
  20   1.0000      -0.222910        -6.0657 
  21   1.0000      -0.212880        -5.7928 
  22   1.0000      -0.212880        -5.7928 
  23   0.0000      -0.129695        -3.5292 
  24   0.0000      -0.025619        -0.6971 
  25   0.0000      -0.025619        -0.6971 
  26   0.0000       0.004684         0.1275 
  27   0.0000       0.006419         0.1747 
  28   0.0000       0.030269         0.8237 
  29   0.0000       0.030269         0.8237 
  30   0.0000       0.055496         1.5101 
  31   0.0000       0.060342         1.6420 
  32   0.0000       0.060653         1.6504 
  33   0.0000       0.074401         2.0246 
  34   0.0000       0.076273         2.0755 
  35   0.0000       0.076273         2.0755 
  36   0.0000       0.095727         2.6049 
  37   0.0000       0.095727         2.6049 
  38   0.0000       0.100560         2.7364 
  39   0.0000       0.120435         3.2772 
  40   0.0000       0.179064         4.8726 
  41   0.0000       0.179064         4.8726 
  42   0.0000       0.192810         5.2466 
  43   0.0000       0.193100         5.2545 
  44   0.0000       0.212802         5.7906 
  45   0.0000       0.228914         6.2291 
  46   0.0000       0.266309         7.2466 
  47   0.0000       0.266309         7.2466 
  48   0.0000       0.294757         8.0207 
  49   0.0000       0.296819         8.0769 
  50   0.0000       0.308370         8.3912 
  51   0.0000       0.351801         9.5730 
  52   0.0000       0.351801         9.5730 
  53   0.0000       0.475101        12.9282 
  54   0.0000       0.478352        13.0166 
  55   0.0000       0.478352        13.0166 
  56   0.0000       0.500722        13.6253 
  57   0.0000       0.562264        15.3000 
  58   0.0000       0.562392        15.3035 
  59   0.0000       0.600933        16.3522 
  60   0.0000       0.600933        16.3522 
  61   0.0000       0.605772        16.4839 
  62   0.0000       0.686061        18.6687 
  63   0.0000       0.686061        18.6687 
  64   0.0000       0.693218        18.8634 
  65   0.0000       0.725940        19.7538 
  66   0.0000       0.726170        19.7601 
  67   0.0000       0.785571        21.3765 
  68   0.0000       0.785571        21.3765 
  69   0.0000       0.856049        23.2943 
  70   0.0000       0.919838        25.0301 
  71   0.0000       0.919838        25.0301 
  72   0.0000       0.992513        27.0076 
  73   0.0000       0.992513        27.0076 
  74   0.0000       1.052450        28.6386 
  75   0.0000       1.143474        31.1155 
  76   0.0000       1.148618        31.2555 
  77   0.0000       1.187824        32.3223 
  78   0.0000       1.187824        32.3223 
  79   0.0000       1.223427        33.2911 
  80   0.0000       1.227121        33.3917 
  81   0.0000       1.233525        33.5659 
  82   0.0000       1.357111        36.9289 
  83   0.0000       1.529797        41.6279 
  84   0.0000       1.529797        41.6279 
  85   0.0000       1.751846        47.6701 
  86   0.0000       1.752164        47.6788 
  87   0.0000       1.859204        50.5915 
  88   0.0000       1.859204        50.5915 
  89   0.0000       1.886161        51.3251 
  90   0.0000       2.054483        55.9053 
  91   0.0000       2.058589        56.0171 
  92   0.0000       2.058589        56.0171 
  93   0.0000       2.071474        56.3677 
  94   0.0000       2.071474        56.3677 
  95   0.0000       2.088230        56.8236 
  96   0.0000       2.088411        56.8286 
  97   0.0000       2.158350        58.7317 
  98   0.0000       2.298594        62.5479 
  99   0.0000       2.298594        62.5479 
 100   0.0000       2.886789        78.5535 
 101   0.0000       3.070031        83.5398 
 102   0.0000       3.070031        83.5398 
 103   0.0000       3.129936        85.1699 
 104   0.0000       3.145724        85.5995 
 105   0.0000       3.162206        86.0480 
 106   0.0000       3.249939        88.4353 
 107   0.0000       3.249939        88.4353 
 108   0.0000       3.296530        89.7031 
 109   0.0000       3.296531        89.7032 
 110   0.0000       3.404281        92.6352 
 111   0.0000       3.876904       105.4959 
 112   0.0000       3.947122       107.4067 
 113   0.0000       3.947122       107.4067 
 114   0.0000       3.954368       107.6038 
 115   0.0000       3.954665       107.6119 
 116   0.0000       3.991855       108.6239 
 117   0.0000       4.000484       108.8587 
 118   0.0000       4.161272       113.2340 
 119   0.0000       4.221717       114.8788 
 120   0.0000       4.221717       114.8788 
 121   0.0000       4.966770       135.1527 
 122   0.0000       4.999662       136.0477 
 123   0.0000       5.316526       144.6700 
 124   0.0000       5.316526       144.6700 
 125   0.0000       5.320425       144.7761 
 126   0.0000       6.520819       177.4405 
 127   0.0000      10.235203       278.5140 
 128   0.0000      10.235203       278.5140 
 129   0.0000      10.248566       278.8777 
 130   0.0000      10.282897       279.8119 
 131   0.0000      10.346719       281.5485 
 132   0.0000      10.346719       281.5485 
 133   0.0000      10.408951       283.2419 
 134   0.0000      11.385942       309.8272 
 135   0.0000      11.385942       309.8272 
 136   0.0000      11.395998       310.1009 
 137   0.0000      11.396686       310.1196 
 138   0.0000      11.403814       310.3136 
 139   0.0000      11.428593       310.9878 
 140   0.0000      11.543893       314.1253 
 141   0.0000      11.543893       314.1253 
 142   0.0000      11.654591       317.1375 

                 SPIN DOWN ORBITALS
  NO   OCC          E(Eh)            E(eV) 
   0   1.0000    -276.691020     -7529.1454 
   1   1.0000     -88.367776     -2404.6094 
   2   1.0000     -32.446406      -882.9116 
   3   1.0000     -28.108965      -764.8838 
   4   1.0000     -28.108965      -764.8838 
   5   1.0000     -28.105698      -764.7949 
   6   1.0000      -7.723521      -210.1677 
   7   1.0000      -5.701959      -155.1582 
   8   1.0000      -5.699407      -155.0888 
   9   1.0000      -5.699407      -155.0888 
  10   1.0000      -3.572785       -97.2204 
  11   1.0000      -2.280282       -62.0496 
  12   1.0000      -2.272496       -61.8378 
  13   1.0000      -2.272496       -61.8378 
  14   1.0000      -0.591200       -16.0874 
  15   1.0000      -0.285829        -7.7778 
  16   1.0000      -0.235851        -6.4178 
  17   1.0000      -0.235851        -6.4178 
  18   1.0000      -0.228206        -6.2098 
  19   1.0000      -0.194820        -5.3013 
  20   0.0000      -0.155794        -4.2394 
  21   0.0000      -0.146774        -3.9939 
  22   0.0000      -0.146774        -3.9939 
  23   0.0000      -0.106970        -2.9108 
  24   0.0000      -0.013623        -0.3707 
  25   0.0000      -0.013623        -0.3707 
  26   0.0000       0.009116         0.2481 
  27   0.0000       0.010558         0.2873 
  28   0.0000       0.035635         0.9697 
  29   0.0000       0.035635         0.9697 
  30   0.0000       0.058486         1.5915 
  31   0.0000       0.063638         1.7317 
  32   0.0000       0.065878         1.7926 
  33   0.0000       0.078732         2.1424 
  34   0.0000       0.082395         2.2421 
  35   0.0000       0.082395         2.2421 
  36   0.0000       0.101050         2.7497 
  37   0.0000       0.101050         2.7497 
  38   0.0000       0.108386         2.9493 
  39   0.0000       0.126029         3.4294 
  40   0.0000       0.189086         5.1453 
  41   0.0000       0.189086         5.1453 
  42   0.0000       0.208569         5.6754 
  43   0.0000       0.209837         5.7099 
  44   0.0000       0.219742         5.9795 
  45   0.0000       0.239136         6.5072 
  46   0.0000       0.283091         7.7033 
  47   0.0000       0.283091         7.7033 
  48   0.0000       0.303502         8.2587 
  49   0.0000       0.316035         8.5998 
  50   0.0000       0.316114         8.6019 
  51   0.0000       0.363781         9.8990 
  52   0.0000       0.363781         9.8990 
  53   0.0000       0.485118        13.2007 
  54   0.0000       0.494038        13.4435 
  55   0.0000       0.494038        13.4435 
  56   0.0000       0.515391        14.0245 
  57   0.0000       0.588482        16.0134 
  58   0.0000       0.588807        16.0223 
  59   0.0000       0.610994        16.6260 
  60   0.0000       0.610994        16.6260 
  61   0.0000       0.625058        17.0087 
  62   0.0000       0.703729        19.1494 
  63   0.0000       0.704957        19.1828 
  64   0.0000       0.704957        19.1828 
  65   0.0000       0.737953        20.0807 
  66   0.0000       0.741256        20.1706 
  67   0.0000       0.811519        22.0826 
  68   0.0000       0.811520        22.0826 
  69   0.0000       0.873508        23.7694 
  70   0.0000       0.940799        25.6004 
  71   0.0000       0.940799        25.6004 
  72   0.0000       1.015043        27.6207 
  73   0.0000       1.015043        27.6207 
  74   0.0000       1.068727        29.0815 
  75   0.0000       1.177273        32.0352 
  76   0.0000       1.201959        32.7070 
  77   0.0000       1.226647        33.3788 
  78   0.0000       1.226647        33.3788 
  79   0.0000       1.243251        33.8306 
  80   0.0000       1.247691        33.9514 
  81   0.0000       1.276738        34.7418 
  82   0.0000       1.374589        37.4045 
  83   0.0000       1.560050        42.4511 
  84   0.0000       1.560050        42.4511 
  85   0.0000       1.779966        48.4353 
  86   0.0000       1.780128        48.4397 
  87   0.0000       1.877737        51.0958 
  88   0.0000       1.877737        51.0958 
  89   0.0000       1.907726        51.9119 
  90   0.0000       2.066957        56.2448 
  91   0.0000       2.075477        56.4766 
  92   0.0000       2.075477        56.4766 
  93   0.0000       2.104081        57.2550 
  94   0.0000       2.104081        57.2550 
  95   0.0000       2.109179        57.3937 
  96   0.0000       2.109635        57.4061 
  97   0.0000       2.170339        59.0579 
  98   0.0000       2.322654        63.2026 
  99   0.0000       2.322654        63.2026 
 100   0.0000       2.922973        79.5381 
 101   0.0000       3.125309        85.0440 
 102   0.0000       3.125309        85.0440 
 103   0.0000       3.194456        86.9256 
 104   0.0000       3.223693        87.7211 
 105   0.0000       3.228498        87.8519 
 106   0.0000       3.301038        89.8258 
 107   0.0000       3.301038        89.8258 
 108   0.0000       3.363661        91.5299 
 109   0.0000       3.363661        91.5299 
 110   0.0000       3.436957        93.5244 
 111   0.0000       3.922835       106.7458 
 112   0.0000       3.992588       108.6438 
 113   0.0000       4.002673       108.9183 
 114   0.0000       4.002862       108.9234 
 115   0.0000       4.002862       108.9234 
 116   0.0000       4.034233       109.7771 
 117   0.0000       4.056331       110.3784 
 118   0.0000       4.193654       114.1151 
 119   0.0000       4.260303       115.9287 
 120   0.0000       4.260303       115.9287 
 121   0.0000       5.042992       137.2268 
 122   0.0000       5.079979       138.2332 
 123   0.0000       5.335795       145.1944 
 124   0.0000       5.401801       146.9905 
 125   0.0000       5.401801       146.9905 
 126   0.0000       6.572396       178.8440 
 127   0.0000      10.355289       281.7817 
 128   0.0000      10.355289       281.7817 
 129   0.0000      10.394948       282.8609 
 130   0.0000      10.423403       283.6352 
 131   0.0000      10.454945       284.4935 
 132   0.0000      10.454945       284.4935 
 133   0.0000      10.498550       285.6801 
 134   0.0000      11.489978       312.6582 
 135   0.0000      11.491501       312.6996 
 136   0.0000      11.491501       312.6996 
 137   0.0000      11.491976       312.7126 
 138   0.0000      11.508444       313.1607 
 139   0.0000      11.512872       313.2812 
 140   0.0000      11.624565       316.3205 
 141   0.0000      11.624565       316.3205 
 142   0.0000      11.729047       319.1636 

                    ********************************
                    * MULLIKEN POPULATION ANALYSIS *
                    ********************************

--------------------------------------------
MULLIKEN ATOMIC CHARGES AND SPIN POPULATIONS
--------------------------------------------
   0 Co:    0.261950    2.273361
   1 S :   -0.261950    0.726639
Sum of atomic charges         :   -0.0000000
Sum of atomic spin populations:    3.0000000

-----------------------------------------------------
MULLIKEN REDUCED ORBITAL CHARGES AND SPIN POPULATIONS
-----------------------------------------------------
CHARGE
  0 Cos       :     6.850138  s :     6.850138
      pz      :     4.075184  p :    12.229147
      px      :     4.076981
      py      :     4.076981
      dz2     :     1.815668  d :     7.646316
      dxz     :     1.417265
      dyz     :     1.417265
      dx2y2   :     0.998935
      dxy     :     1.997183
      f0      :     0.002807  f :     0.011820
      f+1     :     0.004422
      f-1     :     0.004422
      f+2     :     0.000040
      f-2     :     0.000056
      f+3     :     0.000037
      f-3     :     0.000037
      g0      :     0.000224  g :     0.000629
      g+1     :     0.000171
      g-1     :     0.000171
      g+2     :     0.000002
      g-2     :     0.000009
      g+3     :     0.000004
      g-3     :     0.000004
      g+4     :     0.000042
      g-4     :     0.000000
  1 S s       :     5.948461  s :     5.948461
      pz      :     3.305332  p :    10.270444
      px      :     3.482556
      py      :     3.482556
      dz2     :     0.002205  d :     0.037394
      dxz     :     0.016416
      dyz     :     0.016416
      dx2y2   :     0.000600
      dxy     :     0.001756
      f0      :    -0.000063  f :     0.005650
      f+1     :     0.002147
      f-1     :     0.002147
      f+2     :     0.000423
      f-2     :     0.000996
      f+3     :     0.000000
      f-3     :     0.000000

SPIN
  0 Cos       :     0.074609  s :     0.074609
      pz      :     0.000043  p :     0.051552
      px      :     0.025755
      py      :     0.025755
      dz2     :     0.024069  d :     2.145507
      dxz     :     0.561235
      dyz     :     0.561235
      dx2y2   :     0.998935
      dxy     :     0.000032
      f0      :     0.000343  f :     0.001875
      f+1     :     0.000747
      f-1     :     0.000747
      f+2     :     0.000040
      f-2     :     0.000034
      f+3     :    -0.000018
      f-3     :    -0.000018
      g0      :    -0.000076  g :    -0.000182
      g+1     :    -0.000043
      g-1     :    -0.000043
      g+2     :     0.000002
      g-2     :     0.000005
      g+3     :    -0.000001
      g-3     :    -0.000001
      g+4     :    -0.000026
      g-4     :    -0.000000
  1 S s       :    -0.018893  s :    -0.018893
      pz      :    -0.077659  p :     0.755161
      px      :     0.416410
      py      :     0.416410
      dz2     :    -0.002479  d :    -0.007714
      dxz     :    -0.002869
      dyz     :    -0.002869
      dx2y2   :     0.000600
      dxy     :    -0.000096
      f0      :     0.000068  f :    -0.001915
      f+1     :    -0.001215
      f-1     :    -0.001215
      f+2     :     0.000423
      f-2     :     0.000025
      f+3     :    -0.000000
      f-3     :    -0.000000


                     *******************************
                     * LOEWDIN POPULATION ANALYSIS *
                     *******************************

-------------------------------------------
LOEWDIN ATOMIC CHARGES AND SPIN POPULATIONS
-------------------------------------------
   0 Co:    0.035871    2.326254
   1 S :   -0.035871    0.673746

----------------------------------------------------
LOEWDIN REDUCED ORBITAL CHARGES AND SPIN POPULATIONS
----------------------------------------------------
CHARGE
  0 Cos       :     6.606665  s :     6.606665
      pz      :     4.231208  p :    12.431656
      px      :     4.100224
      py      :     4.100224
      dz2     :     1.933617  d :     7.829749
      dxz     :     1.461673
      dyz     :     1.461673
      dx2y2   :     0.992161
      dxy     :     1.980625
      f0      :     0.036683  f :     0.093689
      f+1     :     0.028187
      f-1     :     0.028187
      f+2     :     0.000206
      f-2     :     0.000353
      f+3     :     0.000037
      f-3     :     0.000037
      g0      :     0.001032  g :     0.002369
      g+1     :     0.000638
      g-1     :     0.000638
      g+2     :     0.000000
      g-2     :     0.000010
      g+3     :     0.000004
      g-3     :     0.000004
      g+4     :     0.000042
      g-4     :     0.000000
  1 S s       :     5.488704  s :     5.488704
      pz      :     3.474340  p :    10.116473
      px      :     3.321067
      py      :     3.321067
      dz2     :     0.137474  d :     0.241491
      dxz     :     0.047567
      dyz     :     0.047567
      dx2y2   :     0.002364
      dxy     :     0.006518
      f0      :     0.090235  f :     0.189203
      f+1     :     0.040603
      f-1     :     0.040603
      f+2     :     0.005269
      f-2     :     0.012494
      f+3     :     0.000000
      f-3     :     0.000000

SPIN
  0 Cos       :     0.029431  s :     0.029431
      pz      :    -0.008628  p :     0.130011
      px      :     0.069319
      py      :     0.069319
      dz2     :     0.020443  d :     2.144622
      dxz     :     0.565545
      dyz     :     0.565545
      dx2y2   :     0.992161
      dxy     :     0.000929
      f0      :     0.000225  f :     0.021993
      f+1     :     0.010733
      f-1     :     0.010733
      f+2     :     0.000206
      f-2     :     0.000131
      f+3     :    -0.000018
      f-3     :    -0.000018
      g0      :    -0.000099  g :     0.000198
      g+1     :     0.000165
      g-1     :     0.000165
      g+2     :     0.000000
      g-2     :    -0.000005
      g+3     :    -0.000001
      g-3     :    -0.000001
      g+4     :    -0.000026
      g-4     :    -0.000000
  1 S s       :     0.001820  s :     0.001820
      pz      :    -0.043438  p :     0.635653
      px      :     0.339545
      py      :     0.339545
      dz2     :     0.000884  d :     0.018900
      dxz     :     0.008067
      dyz     :     0.008067
      dx2y2   :     0.002364
      dxy     :    -0.000483
      f0      :    -0.000612  f :     0.017373
      f+1     :     0.006644
      f-1     :     0.006644
      f+2     :     0.005269
      f-2     :    -0.000572
      f+3     :    -0.000000
      f-3     :    -0.000000


                      *****************************
                      * MAYER POPULATION ANALYSIS *
                      *****************************

  NA   - Mulliken gross atomic population
  ZA   - Total nuclear charge
  QA   - Mulliken gross atomic charge
  VA   - Mayer's total valence
  BVA  - Mayer's bonded valence
  FA   - Mayer's free valence

  ATOM       NA         ZA         QA         VA         BVA        FA
  0 Co    26.7381    27.0000     0.2619     4.1597     2.3716     1.7881
  1 S     16.2619    16.0000    -0.2619     2.7367     2.3716     0.3651

  Mayer bond orders larger than 0.100000
B(  0-Co,  1-S ) :   2.3716 

-------
TIMINGS
-------

Total SCF time: 0 days 0 hours 0 min 11 sec 

Total time                  ....      11.602 sec
Sum of individual times     ....      11.347 sec  ( 97.8%)

Fock matrix formation       ....      10.593 sec  ( 91.3%)
  Split-RI-J                ....       7.919 sec  ( 74.8% of F)
  XC integration            ....       2.249 sec  ( 21.2% of F)
    Basis function eval.    ....       0.291 sec  ( 12.9% of XC)
    Density eval.           ....       0.305 sec  ( 13.6% of XC)
    XC-Functional eval.     ....       0.079 sec  (  3.5% of XC)
    XC-Potential eval.      ....       0.799 sec  ( 35.5% of XC)
Diagonalization             ....       0.304 sec  (  2.6%)
Density matrix formation    ....       0.038 sec  (  0.3%)
Population analysis         ....       0.007 sec  (  0.1%)
Initial guess               ....       0.117 sec  (  1.0%)
Orbital Transformation      ....       0.000 sec  (  0.0%)
Orbital Orthonormalization  ....       0.000 sec  (  0.0%)
DIIS solution               ....       0.127 sec  (  1.1%)
Grid generation             ....       0.161 sec  (  1.4%)


-------------------------------------------------------------------------------
                          DFT DISPERSION CORRECTION                            
                                                                               
                              DFTD3 V3.1  Rev 1                                
                          USING Becke-Johnson damping                          
-------------------------------------------------------------------------------
The TPSS functional is recognized
Active option DFTDOPT                   ...         4   

molecular C6(AA) [au] = 682.766983 


            DFT-D V3
 parameters
 s6 scaling factor         :     1.0000 
 a1 scaling factor         :     0.4535 
 s8 scaling factor         :     1.9435 
 a2 scaling factor         :     4.4752 
 ad hoc parameters k1-k3   :    16.0000     1.3333    -4.0000 

 Edisp/kcal,au: -1.036075895390  -0.001651091860 
 E6   /kcal   :  -0.353006571 
 E8   /kcal   :  -0.683069325 
 % E8         :  65.928502718 

-------------------------   ----------------
Dispersion correction           -0.001651092
-------------------------   ----------------


-------------------------   --------------------
FINAL SINGLE POINT ENERGY     -1781.088848040507
-------------------------   --------------------


                            ***************************************
                            *     ORCA property calculations      *
                            ***************************************

                                    ---------------------
                                    Active property flags
                                    ---------------------
   (+) Dipole Moment


------------------------------------------------------------------------------
                       ORCA ELECTRIC PROPERTIES CALCULATION
------------------------------------------------------------------------------

Dipole Moment Calculation                       ... on
Quadrupole Moment Calculation                   ... off
Polarizability Calculation                      ... off
GBWName                                         ... 42_CoS.gbw
Electron density file                           ... 42_CoS.scfp
The origin for moment calculation is the CENTER OF MASS  = ( 0.000000,  0.000000  1.336811)

-------------
DIPOLE MOMENT
-------------
                                X             Y             Z
Electronic contribution:     -0.00000       0.00000      -4.84719
Nuclear contribution   :      0.00000       0.00000       3.17962
                        -----------------------------------------
Total Dipole Moment    :     -0.00000       0.00000      -1.66757
                        -----------------------------------------
Magnitude (a.u.)       :      1.66757
Magnitude (Debye)      :      4.23862



--------------------
Rotational spectrum 
--------------------
 
Rotational constants in cm-1:     0.000000     0.206757     0.206757 
Rotational constants in MHz :     0.000000  6198.412278  6198.412278 

 Dipole components along the rotational axes: 
x,y,z [a.u.] :    -1.667567     0.000000    -0.000000 
x,y,z [Debye]:    -4.238619     0.000000    -0.000000 

 

Timings for individual modules:

Sum of individual times         ...       15.639 sec (=   0.261 min)
GTO integral calculation        ...        3.713 sec (=   0.062 min)  23.7 %
SCF iterations                  ...       11.926 sec (=   0.199 min)  76.3 %
                             ****ORCA TERMINATED NORMALLY****
TOTAL RUN TIME: 0 days 0 hours 0 minutes 16 seconds 225 msec
