
                                 *****************
                                 * O   R   C   A *
                                 *****************

           --- An Ab Initio, DFT and Semiempirical electronic structure package ---

                  #######################################################
                  #                        -***-                        #
                  #          Department of theory and spectroscopy      #
                  #               Directorship: Frank Neese             #
                  #        Max Planck Institute fuer Kohlenforschung    #
                  #                Kaiser Wilhelm Platz 1               #
                  #                 D-45470 Muelheim/Ruhr               #
                  #                      Germany                        #
                  #                                                     #
                  #                  All rights reserved                #
                  #                        -***-                        #
                  #######################################################


                         Program Version 4.2.0 -  RELEASE  -


 With contributions from (in alphabetic order):
   Daniel Aravena         : Magnetic Suceptibility
   Michael Atanasov       : Ab Initio Ligand Field Theory (pilot matlab implementation)
   Alexander A. Auer      : GIAO ZORA, VPT2
   Ute Becker             : Parallelization
   Giovanni Bistoni       : ED, misc. LED, open-shell LED, HFLED
   Martin Brehm           : Molecular dynamics
   Dmytro Bykov           : SCF Hessian
   Vijay G. Chilkuri      : MRCI spin determinant printing, contributions to CSF-ICE
   Dipayan Datta          : RHF DLPNO-CCSD density
   Achintya Kumar Dutta   : EOM-CC, STEOM-CC
   Dmitry Ganyushin       : Spin-Orbit,Spin-Spin,Magnetic field MRCI
   Miquel Garcia          : C-PCM Hessian, Gaussian charge scheme
   Yang Guo               : DLPNO-NEVPT2, CIM, IAO-localization
   Andreas Hansen         : Spin unrestricted coupled pair/coupled cluster methods
   Benjamin Helmich-Paris : CASSCF linear response (MC-RPA)
   Lee Huntington         : MR-EOM, pCC
   Robert Izsak           : Overlap fitted RIJCOSX, COSX-SCS-MP3, EOM
   Christian Kollmar      : KDIIS, OOCD, Brueckner-CCSD(T), CCSD density
   Simone Kossmann        : Meta GGA functionals, TD-DFT gradient, OOMP2, MP2 Hessian
   Martin Krupicka        : AUTO-CI
   Lucas Lang             : DCDCAS
   Dagmar Lenk            : GEPOL surface, SMD
   Dimitrios Liakos       : Extrapolation schemes; Compound Job, initial MDCI parallelization
   Dimitrios Manganas     : Further ROCIS development; embedding schemes
   Dimitrios Pantazis     : SARC Basis sets
   Taras Petrenko         : DFT Hessian,TD-DFT gradient, ASA, ECA, R-Raman, ABS, FL, XAS/XES, NRVS
   Peter Pinski           : DLPNO-MP2, DLPNO-MP2 Gradient
   Christoph Reimann      : Effective Core Potentials
   Marius Retegan         : Local ZFS, SOC
   Christoph Riplinger    : Optimizer, TS searches, QM/MM, DLPNO-CCSD(T), (RO)-DLPNO pert. Triples
   Tobias Risthaus        : Range-separated hybrids, TD-DFT gradient, RPA, STAB
   Michael Roemelt        : Original ROCIS implementation
   Masaaki Saitow         : Open-shell DLPNO-CCSD energy and density
   Barbara Sandhoefer     : DKH picture change effects
   Avijit Sen             : IP-ROCIS
   Kantharuban Sivalingam : CASSCF convergence, NEVPT2, FIC-MRCI
   Bernardo de Souza      : ESD, SOC TD-DFT
   Georgi Stoychev        : AutoAux, RI-MP2 NMR
   Willem Van den Heuvel  : Paramagnetic NMR
   Boris Wezisla          : Elementary symmetry handling
   Frank Wennmohs         : Technical directorship


 We gratefully acknowledge several colleagues who have allowed us to
 interface, adapt or use parts of their codes:
   Stefan Grimme, W. Hujo, H. Kruse,             : VdW corrections, initial TS optimization,
                  C. Bannwarth                     DFT functionals, gCP, sTDA/sTD-DF
   Ed Valeev, F. Pavosevic, A. Kumar             : LibInt (2-el integral package), F12 methods
   Garnet Chan, S. Sharma, J. Yang, R. Olivares  : DMRG
   Ulf Ekstrom                                   : XCFun DFT Library
   Mihaly Kallay                                 : mrcc  (arbitrary order and MRCC methods)
   Andreas Klamt, Michael Diedenhofen            : otool_cosmo (COSMO solvation model)
   Jiri Pittner, Ondrej Demel                    : Mk-CCSD
   Frank Weinhold                                : gennbo (NPA and NBO analysis)
   Christopher J. Cramer and Donald G. Truhlar   : smd solvation model
   Lars Goerigk                                  : TD-DFT with DH, B97 family of functionals
   V. Asgeirsson, H. Jonsson                     : NEB implementation
   FAccTs GmbH                                   : IRC, NEB, NEB-TS, Multilevel, MM, QM/MM, CI optimization
   S Lehtola, MJT Oliveira, MAL Marques          : LibXC Library


 Your calculation uses the libint2 library for the computation of 2-el integrals
 For citations please refer to: http://libint.valeyev.net

 Your ORCA version has been built with support for libXC version: 4.2.3
 For citations please refer to: https://tddft.org/programs/libxc/

 This ORCA versions uses:
   CBLAS   interface :  Fast vector & matrix operations
   LAPACKE interface :  Fast linear algebra routines
   SCALAPACK package :  Parallel linear algebra routines


Your calculation utilizes the atom-pairwise dispersion correction
with the Becke-Johnson damping scheme (D3BJ)
Cite in your paper:
S.Grimme, S.Ehrlich, L.Goerigk, J Comput Chem, (2011), 32, 1456–1465 
S.Grimme, J.Antony, S.Ehrlich and H.Krieg, J.Chem.Phys., 132, (2010), 154104 
   

----- Orbital basis set information -----
Your calculation utilizes the basis: aug-cc-pVTZ 
    H, B-Ne : Obtained from the ccRepo (grant-hill.group.shef.ac.uk/ccrepo) Feb. 2017
              R. A. Kendall, T. H. Dunning, Jr., R. J. Harrison, J. Chem. Phys. 96, 6796 (1992)
         He : Obtained from the ccRepo (grant-hill.group.shef.ac.uk/ccrepo) Feb. 2017
              D. E. Woon, T. H. Dunning, Jr., J. Chem. Phys. 100, 2975 (1994)
  Li-Be, Na : Obtained from the ccRepo (grant-hill.group.shef.ac.uk/ccrepo) Feb. 2017
              B. P. Prascher, D. E. Woon, K. A. Peterson, T. H. Dunning, Jr., A. K. Wilson, Theor. Chem. Acc. 128, 69 (2011)
         Mg : Obtained from the Peterson Research Group Website (tyr0.chem.wsu.edu/~kipeters) Feb. 2017
              B. P. Prascher, D. E. Woon, K. A. Peterson, T. H. Dunning, Jr., A. K. Wilson, Theor. Chem. Acc. 128, 69 (2011)
      Al-Ar : Obtained from the ccRepo (grant-hill.group.shef.ac.uk/ccrepo) Feb. 2017
              D. E. Woon, T. H. Dunning, Jr., J. Chem. Phys. 98, 1358 (1993)
      Sc-Zn : Obtained from the ccRepo (grant-hill.group.shef.ac.uk/ccrepo) Feb. 2017
              N. B. Balabanov, K. A. Peterson, J. Chem. Phys. 123, 064107 (2005)
              N. B. Balabanov, K. A. Peterson, J. Chem. Phys. 125, 074110 (2006)
      Ga-Kr : Obtained from the ccRepo (grant-hill.group.shef.ac.uk/ccrepo) Feb. 2017
              A. K. Wilson, D. E. Woon, K. A. Peterson, T. H. Dunning, Jr., J. Chem. Phys. 110, 7667 (1999)
     Ag, Au : Obtained from the Peterson Research Group Website (tyr0.chem.wsu.edu/~kipeters) Feb. 2017
              K. A. Peterson, C. Puzzarini, Theor. Chem. Acc. 114, 283 (2005)

----- AuxJ basis set information -----
Your calculation utilizes the auxiliary basis: def2/J
   F. Weigend, Phys. Chem. Chem. Phys. 8, 1057 (2006).

================================================================================
                                        WARNINGS
                       Please study these warnings very carefully!
================================================================================


WARNING: your system is open-shell and RHF/RKS was chosen
  ===> : WILL SWITCH to UHF/UKS


INFO   : the flag for use of LIBINT has been found!

================================================================================
                                       INPUT FILE
================================================================================
NAME = 47_NiO.in
|  1> #
|  2> # 47_NiO tpss/aug-cc-pvtz
|  3> #
|  4> ! tpss d3bj aug-cc-pvtz def2/j grid4 nofinalgrid
|  5> 
|  6> *xyz 0 3
|  7>   Ni  0.00000000000000      0.00000000000000      0.18512940996137
|  8>   O   0.00000000000000      0.00000000000000      1.81487059003863
|  9> *
| 10> 
| 11> %pal
| 12> nprocs 24
| 13> end
| 14> 
| 15> 
| 16>                          ****END OF INPUT****
================================================================================

                       ****************************
                       * Single Point Calculation *
                       ****************************

---------------------------------
CARTESIAN COORDINATES (ANGSTROEM)
---------------------------------
  Ni     0.000000    0.000000    0.185129
  O      0.000000    0.000000    1.814871

----------------------------
CARTESIAN COORDINATES (A.U.)
----------------------------
  NO LB      ZA    FRAG     MASS         X           Y           Z
   0 Ni   28.0000    0    58.700    0.000000    0.000000    0.349844
   1 O     8.0000    0    15.999    0.000000    0.000000    3.429608

--------------------------------
INTERNAL COORDINATES (ANGSTROEM)
--------------------------------
 Ni     0   0   0     0.000000000000     0.00000000     0.00000000
 O      1   0   0     1.629741180077     0.00000000     0.00000000

---------------------------
INTERNAL COORDINATES (A.U.)
---------------------------
 Ni     0   0   0     0.000000000000     0.00000000     0.00000000
 O      1   0   0     3.079764499520     0.00000000     0.00000000

---------------------
BASIS SET INFORMATION
---------------------
There are 2 groups of distinct atoms

 Group   1 Type Ni  : 116s77p23d3f2g contracted to 8s7p5d3f2g pattern {19191919191911/151515151511/77711/111/11}
 Group   2 Type O   : 19s6p3d2f contracted to 5s4p3d2f pattern {88111/3111/111/11}

Atom   0Ni   basis set group =>   1
Atom   1O    basis set group =>   2
---------------------------------
AUXILIARY/J BASIS SET INFORMATION
---------------------------------
There are 2 groups of distinct atoms

 Group   1 Type Ni  : 19s5p5d3f3g contracted to 8s5p5d2f3g pattern {121111111/11111/11111/21/111}
 Group   2 Type O   : 12s5p4d2f1g contracted to 6s4p3d1f1g pattern {711111/2111/211/2/1}

Atom   0Ni   basis set group =>   1
Atom   1O    basis set group =>   2


           ************************************************************
           *        Program running with 24 parallel MPI-processes    *
           *              working on a common directory               *
           ************************************************************
------------------------------------------------------------------------------
                           ORCA GTO INTEGRAL CALCULATION
                           -- RI-GTO INTEGRALS CHOSEN --
------------------------------------------------------------------------------

                         BASIS SET STATISTICS AND STARTUP INFO

Gaussian basis set:
 # of primitive gaussian shells          ...  251
 # of primitive gaussian functions       ...  567
 # of contracted shells                  ...   39
 # of contracted basis functions         ...  139
 Highest angular momentum                ...    4
 Maximum contraction depth               ...   19
Auxiliary gaussian basis set:
 # of primitive gaussian shells          ...   59
 # of primitive gaussian functions       ...  177
 # of contracted shells                  ...   38
 # of contracted aux-basis functions     ...  138
 Highest angular momentum                ...    4
 Maximum contraction depth               ...   12
Ratio of auxiliary to basis functions    ...  0.99
Integral package used                  ... LIBINT
 One Electron integrals                  ... done
 Ordering auxiliary basis shells         ... done
 Integral threshhold             Thresh  ...  1.000e-10
 Primitive cut-off               TCut    ...  1.000e-11
 Pre-screening matrix                    ... done
 Shell pair data                         ... 
 Ordering of the shell pairs             ... done (   0.000 sec) 780 of 780 pairs
 Determination of significant pairs      ... done (   0.000 sec)
 Creation of shell pair data             ... done (   0.001 sec)
 Storage of shell pair data              ... done (   0.078 sec)
 Shell pair data done in (   0.079 sec)
 Computing two index integrals           ... done
 Cholesky decomposition of the V-matrix  ... done


Timings:
 Total evaluation time                   ...   2.729 sec (  0.045 min)
 One electron matrix time                ...   0.044 sec (  0.001 min) =  1.6%
 Schwartz matrix evaluation time         ...   2.574 sec (  0.043 min) = 94.3%
 Two index repulsion integral time       ...   0.002 sec (  0.000 min) =  0.1%
 Cholesky decomposition of V             ...   0.001 sec (  0.000 min) =  0.0%
 Three index repulsion integral time     ...   0.000 sec (  0.000 min) =  0.0%



           ************************************************************
           *        Program running with 24 parallel MPI-processes    *
           *              working on a common directory               *
           ************************************************************
-------------------------------------------------------------------------------
                                 ORCA SCF
-------------------------------------------------------------------------------

------------
SCF SETTINGS
------------
Hamiltonian:
 Density Functional     Method          .... DFT(GTOs)
 Exchange Functional    Exchange        .... TPSS
 Correlation Functional Correlation     .... TPSS
 LDA part of GGA corr.  LDAOpt          .... PW91-LDA
 Gradients option       PostSCFGGA      .... off
   Density functional embedding theory  .... OFF
   NL short-range parameter             ....  5.000000
 RI-approximation to the Coulomb term is turned on
   Number of auxiliary basis functions  .... 138


General Settings:
 Integral files         IntName         .... 47_NiO
 Hartree-Fock type      HFTyp           .... UHF
 Total Charge           Charge          ....    0
 Multiplicity           Mult            ....    3
 Number of Electrons    NEL             ....   36
 Basis Dimension        Dim             ....  139
 Nuclear Repulsion      ENuc            ....     72.7328339667 Eh

Convergence Acceleration:
 DIIS                   CNVDIIS         .... on
   Start iteration      DIISMaxIt       ....    12
   Startup error        DIISStart       ....  0.200000
   # of expansion vecs  DIISMaxEq       ....     5
   Bias factor          DIISBfac        ....   1.050
   Max. coefficient     DIISMaxC        ....  10.000
 Newton-Raphson         CNVNR           .... off
 SOSCF                  CNVSOSCF        .... off
 Level Shifting         CNVShift        .... on
   Level shift para.    LevelShift      ....    0.2500
   Turn off err/grad.   ShiftErr        ....    0.0010
 Zerner damping         CNVZerner       .... off
 Static damping         CNVDamp         .... on
   Fraction old density DampFac         ....    0.7000
   Max. Damping (<1)    DampMax         ....    0.9800
   Min. Damping (>=0)   DampMin         ....    0.0000
   Turn off err/grad.   DampErr         ....    0.1000
 Fernandez-Rico         CNVRico         .... off

SCF Procedure:
 Maximum # iterations   MaxIter         ....   125
 SCF integral mode      SCFMode         .... Direct
   Integral package                     .... LIBINT
 Reset frequency        DirectResetFreq ....    20
 Integral Threshold     Thresh          ....  1.000e-10 Eh
 Primitive CutOff       TCut            ....  1.000e-11 Eh

Convergence Tolerance:
 Convergence Check Mode ConvCheckMode   .... Total+1el-Energy
 Convergence forced     ConvForced      .... 0
 Energy Change          TolE            ....  1.000e-06 Eh
 1-El. energy change                    ....  1.000e-03 Eh
 DIIS Error             TolErr          ....  1.000e-06


Diagonalization of the overlap matrix:
Smallest eigenvalue                        ... 2.141e-04
Time for diagonalization                   ...    0.006 sec
Threshold for overlap eigenvalues          ... 1.000e-08
Number of eigenvalues below threshold      ... 0
Time for construction of square roots      ...    0.003 sec
Total time needed                          ...    0.009 sec

-------------------
DFT GRID GENERATION
-------------------

General Integration Accuracy     IntAcc      ...  4.670
Radial Grid Type                 RadialGrid  ... Gauss-Chebyshev
Angular Grid (max. acc.)         AngularGrid ... Lebedev-302
Angular grid pruning method      GridPruning ... 3 (G Style)
Weight generation scheme         WeightScheme... Becke
Basis function cutoff            BFCut       ...    1.0000e-10
Integration weight cutoff        WCut        ...    1.0000e-14
Grids for H and He will be reduced by one unit

# of grid points (after initial pruning)     ...  15876 (   0.0 sec)
# of grid points (after weights+screening)   ...  15835 (   0.0 sec)
nearest neighbour list constructed           ...    0.0 sec
Grid point re-assignment to atoms done       ...    0.0 sec
Grid point division into batches done        ...    0.1 sec
Reduced shell lists constructed in    0.1 sec

Total number of grid points                  ...    15835
Total number of batches                      ...      248
Average number of points per batch           ...       63
Average number of grid points per atom       ...     7918
Average number of shells per batch           ...    15.00 (38.46%)
Average number of basis functions per batch  ...    35.00 (25.18%)
Average number of large shells per batch     ...     8.42 (56.11%)
Average number of large basis fcns per batch ...    19.08 (54.52%)
Maximum spatial batch extension              ...  22.45, 22.17, 15.88 au
Average spatial batch extension              ...   0.80,  0.79,  0.61 au

Time for grid setup =    0.160 sec

------------------------------
INITIAL GUESS: MODEL POTENTIAL
------------------------------
Loading Hartree-Fock densities                     ... done
Calculating cut-offs                               ... done
Setting up the integral package                    ... done
Initializing the effective Hamiltonian             ... done
Starting the Coulomb interaction                   ... done (   0.0 sec)
Reading the grid                                   ... done
Mapping shells                                     ... done
Starting the XC term evaluation                    ... done (   0.0 sec)
  promolecular density results
     # of electrons  =     36.000032126
     EX              =    -69.617383597
     EC              =     -1.539420979
     EX+EC           =    -71.156804576
Transforming the Hamiltonian                       ... done (   0.0 sec)
Diagonalizing the Hamiltonian                      ... done (   0.0 sec)
Back transforming the eigenvectors                 ... done (   0.0 sec)
Now organizing SCF variables                       ... done
                      ------------------
                      INITIAL GUESS DONE (   0.3 sec)
                      ------------------
--------------
SCF ITERATIONS
--------------
ITER       Energy         Delta-E        Max-DP      RMS-DP      [F,P]     Damp
               ***  Starting incremental Fock matrix formation  ***
  0  -1583.3007202989   0.000000000000 0.19935633  0.00220024  0.4510579 0.7000
  1  -1583.3786798003  -0.077959501392 0.14419543  0.00158050  0.2181419 0.7000
                               ***Turning on DIIS***
  2  -1583.4328441059  -0.054164305657 0.08490679  0.00095700  0.1271534 0.7000
  3  -1583.4797900374  -0.046945931448 0.28748648  0.00245638  0.0845941 0.0000
  4  -1583.5332368926  -0.053446855171 0.01116194  0.00018070  0.3305575 0.7000
  5  -1583.5536299212  -0.020393028650 0.01457531  0.00020316  0.2821917 0.7000
  6  -1583.5708877193  -0.017257798089 0.01412218  0.00019768  0.2384846 0.7000
  7  -1583.5842222157  -0.013334496424 0.01238241  0.00016745  0.1991688 0.7000
  8  -1583.5930595460  -0.008837330255 0.00998501  0.00031391  0.1676783 0.7000
  9  -1583.6057079210  -0.012648375073 0.04206019  0.00068585  0.0807809 0.0000
 10  -1583.6138895737  -0.008181652656 0.00987992  0.00023248  0.0792281 0.0000
 11  -1583.6192321881  -0.005342614391 0.00872697  0.00010360  0.0193426 0.0000
 12  -1583.6197746253  -0.000542437253 0.00477727  0.00004818  0.0029144 0.0000
 13  -1583.6198277010  -0.000053075629 0.00292642  0.00003305  0.0045788 0.0000
 14  -1583.6198621610  -0.000034460020 0.00185118  0.00002739  0.0036562 0.0000
 15  -1583.6198961203  -0.000033959292 0.00156826  0.00002219  0.0010756 0.0000
 16  -1583.6199128691  -0.000016748777 0.00490777  0.00006609  0.0002528 0.0000
 17  -1583.6199429939  -0.000030124817 0.00098369  0.00001339  0.0002804 0.0000
 18  -1583.6199463942  -0.000003400302 0.00116426  0.00001698  0.0002928 0.0000
 19  -1583.6199505729  -0.000004178713 0.00147371  0.00002011  0.0003116 0.0000
               *** Restarting incremental Fock matrix formation ***
                                   *** Resetting DIIS ***
 20  -1583.6199537075  -0.000003134575 0.00053386  0.00000961  0.0005172 0.0000
 21  -1583.6199525302   0.000001177313 0.00076164  0.00000622  0.0006367 0.0000
 22  -1583.6199535771  -0.000001046936 0.00026350  0.00000312  0.0005501 0.0000
 23  -1583.6199540366  -0.000000459530 0.00016196  0.00000188  0.0001634 0.0000
 24  -1583.6199536489   0.000000387729 0.00012252  0.00000130  0.0000937 0.0000
                 **** Energy Check signals convergence ****

               *****************************************************
               *                     SUCCESS                       *
               *           SCF CONVERGED AFTER  25 CYCLES          *
               *****************************************************


----------------
TOTAL SCF ENERGY
----------------

Total Energy       :        -1583.61995406 Eh          -43092.48973 eV

Components:
Nuclear Repulsion  :           72.73283397 Eh            1979.16103 eV
Electronic Energy  :        -1656.35278803 Eh          -45071.65076 eV
One Electron Energy:        -2344.37430465 Eh          -63793.66804 eV
Two Electron Energy:          688.02151662 Eh           18722.01728 eV

Virial components:
Potential Energy   :        -3164.83193225 Eh          -86119.45511 eV
Kinetic Energy     :         1581.21197819 Eh           43026.96538 eV
Virial Ratio       :            2.00152287


DFT components:
N(Alpha)           :       19.000000425038 electrons
N(Beta)            :       17.000002182449 electrons
N(Total)           :       36.000002607487 electrons
E(X)               :      -70.170387121865 Eh       
E(C)               :       -1.555457691161 Eh       
E(XC)              :      -71.725844813026 Eh       
DFET-embed. en.    :        0.000000000000 Eh       

---------------
SCF CONVERGENCE
---------------

  Last Energy change         ...   -4.1489e-07  Tolerance :   1.0000e-06
  Last MAX-Density change    ...    6.4665e-05  Tolerance :   1.0000e-05
  Last RMS-Density change    ...    8.8212e-07  Tolerance :   1.0000e-06
  Last DIIS Error            ...    1.5153e-05  Tolerance :   1.0000e-06

             **** THE GBW FILE WAS UPDATED (47_NiO.gbw) ****
             **** DENSITY FILE WAS UPDATED (47_NiO.scfp) ****
             **** ENERGY FILE WAS UPDATED (47_NiO.en.tmp) ****
----------------------
UHF SPIN CONTAMINATION
----------------------

Warning: in a DFT calculation there is little theoretical justification to 
         calculate <S**2> as in Hartree-Fock theory. We will do it anyways
         but you should keep in mind that the values have only limited relevance

Expectation value of <S**2>     :     2.008255
Ideal value S*(S+1) for S=1.0   :     2.000000
Deviation                       :     0.008255

             **** THE GBW FILE WAS UPDATED (47_NiO.gbw) ****
             **** DENSITY FILE WAS UPDATED (47_NiO.scfp) ****
----------------
ORBITAL ENERGIES
----------------
                 SPIN UP ORBITALS
  NO   OCC          E(Eh)            E(eV) 
   0   1.0000    -298.974014     -8135.4965 
   1   1.0000     -35.394223      -963.1258 
   2   1.0000     -30.842422      -839.2650 
   3   1.0000     -30.824096      -838.7663 
   4   1.0000     -30.824094      -838.7662 
   5   1.0000     -18.910649      -514.5849 
   6   1.0000      -3.929005      -106.9137 
   7   1.0000      -2.572839       -70.0105 
   8   1.0000      -2.517906       -68.5157 
   9   1.0000      -2.517901       -68.5156 
  10   1.0000      -0.859849       -23.3977 
  11   1.0000      -0.345315        -9.3965 
  12   1.0000      -0.337248        -9.1770 
  13   1.0000      -0.337247        -9.1770 
  14   1.0000      -0.237964        -6.4753 
  15   1.0000      -0.237963        -6.4753 
  16   1.0000      -0.234391        -6.3781 
  17   1.0000      -0.234390        -6.3781 
  18   1.0000      -0.214326        -5.8321 
  19   0.0000      -0.132756        -3.6125 
  20   0.0000      -0.016321        -0.4441 
  21   0.0000      -0.016321        -0.4441 
  22   0.0000       0.007697         0.2095 
  23   0.0000       0.012072         0.3285 
  24   0.0000       0.041516         1.1297 
  25   0.0000       0.041516         1.1297 
  26   0.0000       0.068563         1.8657 
  27   0.0000       0.078475         2.1354 
  28   0.0000       0.078476         2.1354 
  29   0.0000       0.082382         2.2417 
  30   0.0000       0.082382         2.2417 
  31   0.0000       0.090957         2.4751 
  32   0.0000       0.119030         3.2390 
  33   0.0000       0.190398         5.1810 
  34   0.0000       0.195593         5.3224 
  35   0.0000       0.195594         5.3224 
  36   0.0000       0.203733         5.5439 
  37   0.0000       0.203734         5.5439 
  38   0.0000       0.265632         7.2282 
  39   0.0000       0.343783         9.3548 
  40   0.0000       0.343783         9.3548 
  41   0.0000       0.347847         9.4654 
  42   0.0000       0.356269         9.6946 
  43   0.0000       0.356270         9.6946 
  44   0.0000       0.521446        14.1893 
  45   0.0000       0.565612        15.3911 
  46   0.0000       0.565617        15.3912 
  47   0.0000       0.629374        17.1261 
  48   0.0000       0.691623        18.8200 
  49   0.0000       0.691624        18.8201 
  50   0.0000       0.709355        19.3025 
  51   0.0000       0.864525        23.5249 
  52   0.0000       0.864525        23.5249 
  53   0.0000       0.918386        24.9906 
  54   0.0000       0.918388        24.9906 
  55   0.0000       1.019724        27.7481 
  56   0.0000       1.082031        29.4436 
  57   0.0000       1.220368        33.2079 
  58   0.0000       1.220368        33.2079 
  59   0.0000       1.292850        35.1802 
  60   0.0000       1.292851        35.1803 
  61   0.0000       1.309847        35.6427 
  62   0.0000       1.309850        35.6428 
  63   0.0000       1.350228        36.7416 
  64   0.0000       1.350228        36.7416 
  65   0.0000       1.384437        37.6724 
  66   0.0000       1.553135        42.2630 
  67   0.0000       1.553135        42.2630 
  68   0.0000       1.763700        47.9927 
  69   0.0000       1.820382        49.5351 
  70   0.0000       1.839352        50.0513 
  71   0.0000       1.839352        50.0513 
  72   0.0000       1.885468        51.3062 
  73   0.0000       1.885494        51.3069 
  74   0.0000       2.096716        57.0545 
  75   0.0000       2.096720        57.0546 
  76   0.0000       2.125404        57.8352 
  77   0.0000       2.125431        57.8359 
  78   0.0000       2.287704        62.2516 
  79   0.0000       2.715851        73.9021 
  80   0.0000       2.715853        73.9021 
  81   0.0000       3.073990        83.6475 
  82   0.0000       3.503420        95.3329 
  83   0.0000       3.741851       101.8209 
  84   0.0000       3.741857       101.8211 
  85   0.0000       3.789969       103.1303 
  86   0.0000       3.789969       103.1303 
  87   0.0000       3.818677       103.9115 
  88   0.0000       3.818680       103.9116 
  89   0.0000       3.844295       104.6086 
  90   0.0000       3.844299       104.6087 
  91   0.0000       3.848823       104.7318 
  92   0.0000       3.938911       107.1832 
  93   0.0000       3.938914       107.1833 
  94   0.0000       4.208232       114.5118 
  95   0.0000       4.554331       123.9297 
  96   0.0000       4.971238       135.2743 
  97   0.0000       4.971238       135.2743 
  98   0.0000       4.987174       135.7079 
  99   0.0000       4.987199       135.7086 
 100   0.0000       5.091148       138.5372 
 101   0.0000       5.091151       138.5373 
 102   0.0000       5.127091       139.5152 
 103   0.0000       5.127094       139.5153 
 104   0.0000       5.368759       146.0914 
 105   0.0000       5.543792       150.8543 
 106   0.0000       5.543797       150.8544 
 107   0.0000       5.915938       160.9809 
 108   0.0000       5.915941       160.9809 
 109   0.0000       6.054345       164.7471 
 110   0.0000       6.054345       164.7471 
 111   0.0000       6.149694       167.3417 
 112   0.0000       6.149709       167.3421 
 113   0.0000       6.407965       174.3696 
 114   0.0000       6.407970       174.3697 
 115   0.0000       6.409871       174.4215 
 116   0.0000       6.468309       176.0116 
 117   0.0000       6.468481       176.0163 
 118   0.0000       6.927905       188.5179 
 119   0.0000       6.927911       188.5180 
 120   0.0000       6.985758       190.0921 
 121   0.0000       7.617391       207.2797 
 122   0.0000      10.763974       292.9026 
 123   0.0000      12.254858       333.4716 
 124   0.0000      12.254864       333.4718 
 125   0.0000      12.270672       333.9020 
 126   0.0000      12.270672       333.9020 
 127   0.0000      12.326778       335.4287 
 128   0.0000      12.326785       335.4289 
 129   0.0000      12.503823       340.2463 
 130   0.0000      13.898069       378.1857 
 131   0.0000      13.898069       378.1857 
 132   0.0000      13.933360       379.1460 
 133   0.0000      13.933448       379.1484 
 134   0.0000      13.958837       379.8393 
 135   0.0000      13.958868       379.8401 
 136   0.0000      14.198959       386.3733 
 137   0.0000      14.198965       386.3735 
 138   0.0000      14.459268       393.4567 

                 SPIN DOWN ORBITALS
  NO   OCC          E(Eh)            E(eV) 
   0   1.0000    -298.973624     -8135.4859 
   1   1.0000     -35.371889      -962.5180 
   2   1.0000     -30.818482      -838.6135 
   3   1.0000     -30.808827      -838.3508 
   4   1.0000     -30.808826      -838.3508 
   5   1.0000     -18.887594      -513.9576 
   6   1.0000      -3.877688      -105.5173 
   7   1.0000      -2.504916       -68.1622 
   8   1.0000      -2.475894       -67.3725 
   9   1.0000      -2.475892       -67.3725 
  10   1.0000      -0.808554       -22.0019 
  11   1.0000      -0.329325        -8.9614 
  12   1.0000      -0.270348        -7.3566 
  13   1.0000      -0.270346        -7.3565 
  14   1.0000      -0.211579        -5.7573 
  15   1.0000      -0.211578        -5.7573 
  16   1.0000      -0.202946        -5.5224 
  17   0.0000      -0.156707        -4.2642 
  18   0.0000      -0.156707        -4.2642 
  19   0.0000      -0.115387        -3.1398 
  20   0.0000      -0.009679        -0.2634 
  21   0.0000      -0.009679        -0.2634 
  22   0.0000       0.009694         0.2638 
  23   0.0000       0.014452         0.3933 
  24   0.0000       0.044418         1.2087 
  25   0.0000       0.044419         1.2087 
  26   0.0000       0.070894         1.9291 
  27   0.0000       0.079480         2.1628 
  28   0.0000       0.079480         2.1628 
  29   0.0000       0.085915         2.3379 
  30   0.0000       0.085915         2.3379 
  31   0.0000       0.094412         2.5691 
  32   0.0000       0.124756         3.3948 
  33   0.0000       0.192289         5.2325 
  34   0.0000       0.200504         5.4560 
  35   0.0000       0.200505         5.4560 
  36   0.0000       0.210796         5.7360 
  37   0.0000       0.210796         5.7360 
  38   0.0000       0.271529         7.3887 
  39   0.0000       0.347162         9.4468 
  40   0.0000       0.347163         9.4468 
  41   0.0000       0.355628         9.6771 
  42   0.0000       0.367222         9.9926 
  43   0.0000       0.367223         9.9926 
  44   0.0000       0.527635        14.3577 
  45   0.0000       0.581353        15.8194 
  46   0.0000       0.581357        15.8195 
  47   0.0000       0.641254        17.4494 
  48   0.0000       0.702739        19.1225 
  49   0.0000       0.702740        19.1225 
  50   0.0000       0.721311        19.6279 
  51   0.0000       0.881381        23.9836 
  52   0.0000       0.881381        23.9836 
  53   0.0000       0.945150        25.7188 
  54   0.0000       0.945153        25.7189 
  55   0.0000       1.034170        28.1412 
  56   0.0000       1.099095        29.9079 
  57   0.0000       1.223407        33.2906 
  58   0.0000       1.223407        33.2906 
  59   0.0000       1.307701        35.5843 
  60   0.0000       1.307704        35.5844 
  61   0.0000       1.346624        36.6435 
  62   0.0000       1.346629        36.6436 
  63   0.0000       1.365878        37.1674 
  64   0.0000       1.365879        37.1675 
  65   0.0000       1.396854        38.0103 
  66   0.0000       1.566960        42.6391 
  67   0.0000       1.566960        42.6392 
  68   0.0000       1.780186        48.4413 
  69   0.0000       1.843073        50.1526 
  70   0.0000       1.869034        50.8590 
  71   0.0000       1.869034        50.8590 
  72   0.0000       1.932304        52.5807 
  73   0.0000       1.932319        52.5811 
  74   0.0000       2.118112        57.6368 
  75   0.0000       2.118113        57.6368 
  76   0.0000       2.144971        58.3676 
  77   0.0000       2.144991        58.3682 
  78   0.0000       2.304859        62.7184 
  79   0.0000       2.736373        74.4605 
  80   0.0000       2.736373        74.4605 
  81   0.0000       3.105495        84.5048 
  82   0.0000       3.536511        96.2333 
  83   0.0000       3.797095       103.3242 
  84   0.0000       3.797099       103.3243 
  85   0.0000       3.803641       103.5023 
  86   0.0000       3.803641       103.5023 
  87   0.0000       3.865118       105.1752 
  88   0.0000       3.865123       105.1753 
  89   0.0000       3.875490       105.4575 
  90   0.0000       3.875491       105.4575 
  91   0.0000       3.877984       105.5253 
  92   0.0000       3.976781       108.2137 
  93   0.0000       3.976783       108.2138 
  94   0.0000       4.240902       115.4008 
  95   0.0000       4.582019       124.6831 
  96   0.0000       4.994526       135.9080 
  97   0.0000       4.994549       135.9086 
  98   0.0000       5.003111       136.1416 
  99   0.0000       5.003111       136.1416 
 100   0.0000       5.127146       139.5167 
 101   0.0000       5.127147       139.5168 
 102   0.0000       5.165362       140.5566 
 103   0.0000       5.165365       140.5567 
 104   0.0000       5.393782       146.7723 
 105   0.0000       5.568129       151.5165 
 106   0.0000       5.568133       151.5166 
 107   0.0000       5.967913       162.3952 
 108   0.0000       5.967914       162.3952 
 109   0.0000       6.112269       166.3233 
 110   0.0000       6.112269       166.3233 
 111   0.0000       6.198167       168.6607 
 112   0.0000       6.198169       168.6608 
 113   0.0000       6.448377       175.4693 
 114   0.0000       6.450570       175.5289 
 115   0.0000       6.450572       175.5290 
 116   0.0000       6.559830       178.5020 
 117   0.0000       6.559978       178.5061 
 118   0.0000       6.985006       190.0717 
 119   0.0000       6.985007       190.0717 
 120   0.0000       7.027891       191.2386 
 121   0.0000       7.651926       208.2195 
 122   0.0000      10.810971       294.1815 
 123   0.0000      12.304709       334.8282 
 124   0.0000      12.304709       334.8282 
 125   0.0000      12.345018       335.9250 
 126   0.0000      12.345023       335.9251 
 127   0.0000      12.393391       337.2413 
 128   0.0000      12.393393       337.2414 
 129   0.0000      12.549583       341.4915 
 130   0.0000      13.959042       379.8448 
 131   0.0000      13.959042       379.8448 
 132   0.0000      13.964196       379.9851 
 133   0.0000      13.964278       379.9873 
 134   0.0000      14.019917       381.5013 
 135   0.0000      14.019936       381.5018 
 136   0.0000      14.250983       387.7890 
 137   0.0000      14.250984       387.7890 
 138   0.0000      14.506509       394.7422 

                    ********************************
                    * MULLIKEN POPULATION ANALYSIS *
                    ********************************

--------------------------------------------
MULLIKEN ATOMIC CHARGES AND SPIN POPULATIONS
--------------------------------------------
   0 Ni:    0.513131    1.084830
   1 O :   -0.513131    0.915170
Sum of atomic charges         :   -0.0000000
Sum of atomic spin populations:    2.0000000

-----------------------------------------------------
MULLIKEN REDUCED ORBITAL CHARGES AND SPIN POPULATIONS
-----------------------------------------------------
CHARGE
  0 Nis       :     6.692455  s :     6.692455
      pz      :     4.035647  p :    12.133258
      px      :     4.048806
      py      :     4.048805
      dz2     :     1.727932  d :     8.644893
      dxz     :     1.459787
      dyz     :     1.459799
      dx2y2   :     1.998687
      dxy     :     1.998687
      f0      :     0.005657  f :     0.015528
      f+1     :     0.004821
      f-1     :     0.004821
      f+2     :     0.000114
      f-2     :     0.000114
      f+3     :     0.000000
      f-3     :     0.000000
      g0      :     0.000249  g :     0.000735
      g+1     :     0.000228
      g-1     :     0.000228
      g+2     :     0.000016
      g-2     :     0.000016
      g+3     :     0.000000
      g-3     :     0.000000
      g+4     :     0.000000
      g-4     :     0.000000
  1 O s       :     3.988282  s :     3.988282
      pz      :     1.544948  p :     4.499848
      px      :     1.477455
      py      :     1.477445
      dz2     :     0.003394  d :     0.020228
      dxz     :     0.007764
      dyz     :     0.007764
      dx2y2   :     0.000653
      dxy     :     0.000653
      f0      :     0.001435  f :     0.004773
      f+1     :     0.001138
      f-1     :     0.001138
      f+2     :     0.000531
      f-2     :     0.000531
      f+3     :     0.000000
      f-3     :     0.000000

SPIN
  0 Nis       :    -0.016888  s :    -0.016888
      pz      :    -0.000188  p :     0.043429
      px      :     0.021809
      py      :     0.021809
      dz2     :     0.011251  d :     1.053814
      dxz     :     0.521517
      dyz     :     0.521505
      dx2y2   :    -0.000230
      dxy     :    -0.000229
      f0      :     0.000376  f :     0.004519
      f+1     :     0.002010
      f-1     :     0.002010
      f+2     :     0.000061
      f-2     :     0.000061
      f+3     :     0.000000
      f-3     :     0.000000
      g0      :    -0.000060  g :    -0.000044
      g+1     :    -0.000008
      g-1     :    -0.000008
      g+2     :     0.000015
      g-2     :     0.000015
      g+3     :     0.000000
      g-3     :     0.000000
      g+4     :     0.000000
      g-4     :     0.000000
  1 O s       :     0.000009  s :     0.000009
      pz      :     0.005300  p :     0.919726
      px      :     0.457207
      py      :     0.457219
      dz2     :     0.000093  d :    -0.003658
      dxz     :    -0.001955
      dyz     :    -0.001955
      dx2y2   :     0.000080
      dxy     :     0.000080
      f0      :     0.000108  f :    -0.000908
      f+1     :    -0.000581
      f-1     :    -0.000581
      f+2     :     0.000073
      f-2     :     0.000073
      f+3     :     0.000000
      f-3     :     0.000000


                     *******************************
                     * LOEWDIN POPULATION ANALYSIS *
                     *******************************

-------------------------------------------
LOEWDIN ATOMIC CHARGES AND SPIN POPULATIONS
-------------------------------------------
   0 Ni:    0.491047    1.166186
   1 O :   -0.491047    0.833814

----------------------------------------------------
LOEWDIN REDUCED ORBITAL CHARGES AND SPIN POPULATIONS
----------------------------------------------------
CHARGE
  0 Nis       :     6.482656  s :     6.482656
      pz      :     4.138458  p :    12.223155
      px      :     4.042349
      py      :     4.042348
      dz2     :     1.823733  d :     8.686400
      dxz     :     1.447819
      dyz     :     1.447829
      dx2y2   :     1.983510
      dxy     :     1.983510
      f0      :     0.053044  f :     0.112749
      f+1     :     0.029245
      f-1     :     0.029245
      f+2     :     0.000608
      f-2     :     0.000608
      f+3     :     0.000000
      f-3     :     0.000000
      g0      :     0.002273  g :     0.003993
      g+1     :     0.000841
      g-1     :     0.000841
      g+2     :     0.000019
      g-2     :     0.000019
      g+3     :     0.000000
      g-3     :     0.000000
      g+4     :     0.000000
      g-4     :     0.000000
  1 O s       :     3.607979  s :     3.607979
      pz      :     1.686762  p :     4.472629
      px      :     1.392938
      py      :     1.392929
      dz2     :     0.134973  d :     0.253369
      dxz     :     0.051457
      dyz     :     0.051457
      dx2y2   :     0.007741
      dxy     :     0.007741
      f0      :     0.070123  f :     0.157070
      f+1     :     0.035351
      f-1     :     0.035351
      f+2     :     0.008123
      f-2     :     0.008122
      f+3     :     0.000000
      f-3     :     0.000000

SPIN
  0 Nis       :    -0.013144  s :    -0.013144
      pz      :    -0.004821  p :     0.102394
      px      :     0.053608
      py      :     0.053607
      dz2     :     0.009082  d :     1.041376
      dxz     :     0.515725
      dyz     :     0.515714
      dx2y2   :     0.000428
      dxy     :     0.000428
      f0      :     0.001267  f :     0.034610
      f+1     :     0.016524
      f-1     :     0.016524
      f+2     :     0.000148
      f-2     :     0.000148
      f+3     :     0.000000
      f-3     :     0.000000
      g0      :    -0.000031  g :     0.000950
      g+1     :     0.000491
      g-1     :     0.000491
      g+2     :    -0.000001
      g-2     :    -0.000001
      g+3     :     0.000000
      g-3     :     0.000000
      g+4     :     0.000000
      g-4     :     0.000000
  1 O s       :     0.006371  s :     0.006371
      pz      :     0.001722  p :     0.793660
      px      :     0.395964
      py      :     0.395975
      dz2     :    -0.000187  d :     0.016352
      dxz     :     0.008640
      dyz     :     0.008640
      dx2y2   :    -0.000371
      dxy     :    -0.000371
      f0      :    -0.000259  f :     0.017431
      f+1     :     0.009049
      f-1     :     0.009049
      f+2     :    -0.000204
      f-2     :    -0.000204
      f+3     :     0.000000
      f-3     :     0.000000


                      *****************************
                      * MAYER POPULATION ANALYSIS *
                      *****************************

  NA   - Mulliken gross atomic population
  ZA   - Total nuclear charge
  QA   - Mulliken gross atomic charge
  VA   - Mayer's total valence
  BVA  - Mayer's bonded valence
  FA   - Mayer's free valence

  ATOM       NA         ZA         QA         VA         BVA        FA
  0 Ni    27.4869    28.0000     0.5131     2.6119     1.9372     0.6748
  1 O      8.5131     8.0000    -0.5131     2.3583     1.9372     0.4212

  Mayer bond orders larger than 0.100000
B(  0-Ni,  1-O ) :   1.9372 

-------
TIMINGS
-------

Total SCF time: 0 days 0 hours 0 min 5 sec 

Total time                  ....       5.853 sec
Sum of individual times     ....       5.663 sec  ( 96.7%)

Fock matrix formation       ....       5.174 sec  ( 88.4%)
  Split-RI-J                ....       3.836 sec  ( 74.1% of F)
  XC integration            ....       1.073 sec  ( 20.7% of F)
    Basis function eval.    ....       0.135 sec  ( 12.6% of XC)
    Density eval.           ....       0.153 sec  ( 14.3% of XC)
    XC-Functional eval.     ....       0.037 sec  (  3.4% of XC)
    XC-Potential eval.      ....       0.399 sec  ( 37.2% of XC)
Diagonalization             ....       0.133 sec  (  2.3%)
Density matrix formation    ....       0.017 sec  (  0.3%)
Population analysis         ....       0.007 sec  (  0.1%)
Initial guess               ....       0.123 sec  (  2.1%)
Orbital Transformation      ....       0.000 sec  (  0.0%)
Orbital Orthonormalization  ....       0.000 sec  (  0.0%)
DIIS solution               ....       0.048 sec  (  0.8%)
Grid generation             ....       0.160 sec  (  2.7%)


-------------------------------------------------------------------------------
                          DFT DISPERSION CORRECTION                            
                                                                               
                              DFTD3 V3.1  Rev 1                                
                          USING Becke-Johnson damping                          
-------------------------------------------------------------------------------
The TPSS functional is recognized
Active option DFTDOPT                   ...         4   

molecular C6(AA) [au] = 345.977259 


            DFT-D V3
 parameters
 s6 scaling factor         :     1.0000 
 a1 scaling factor         :     0.4535 
 s8 scaling factor         :     1.9435 
 a2 scaling factor         :     4.4752 
 ad hoc parameters k1-k3   :    16.0000     1.3333    -4.0000 

 Edisp/kcal,au: -0.466169071987  -0.000742887624 
 E6   /kcal   :  -0.188546886 
 E8   /kcal   :  -0.277622186 
 % E8         :  59.553969288 

-------------------------   ----------------
Dispersion correction           -0.000742888
-------------------------   ----------------


-------------------------   --------------------
FINAL SINGLE POINT ENERGY     -1583.620696951413
-------------------------   --------------------


                            ***************************************
                            *     ORCA property calculations      *
                            ***************************************

                                    ---------------------
                                    Active property flags
                                    ---------------------
   (+) Dipole Moment


------------------------------------------------------------------------------
                       ORCA ELECTRIC PROPERTIES CALCULATION
------------------------------------------------------------------------------

Dipole Moment Calculation                       ... on
Quadrupole Moment Calculation                   ... off
Polarizability Calculation                      ... off
GBWName                                         ... 47_NiO.gbw
Electron density file                           ... 47_NiO.scfp
The origin for moment calculation is the CENTER OF MASS  = ( 0.000000,  0.000000  1.009467)

-------------
DIPOLE MOMENT
-------------
                                X             Y             Z
Electronic contribution:      0.00000       0.00000      -2.53581
Nuclear contribution   :      0.00000       0.00000       0.89170
                        -----------------------------------------
Total Dipole Moment    :      0.00000       0.00000      -1.64411
                        -----------------------------------------
Magnitude (a.u.)       :      1.64411
Magnitude (Debye)      :      4.17899



--------------------
Rotational spectrum 
--------------------
 
Rotational constants in cm-1:     0.000000     0.504828     0.504828 
Rotational constants in MHz :     0.000000 15134.363944 15134.363944 

 Dipole components along the rotational axes: 
x,y,z [a.u.] :    -1.644106     0.000000     0.000000 
x,y,z [Debye]:    -4.178986     0.000000     0.000000 

 

Timings for individual modules:

Sum of individual times         ...        9.397 sec (=   0.157 min)
GTO integral calculation        ...        3.198 sec (=   0.053 min)  34.0 %
SCF iterations                  ...        6.198 sec (=   0.103 min)  66.0 %
                             ****ORCA TERMINATED NORMALLY****
TOTAL RUN TIME: 0 days 0 hours 0 minutes 10 seconds 23 msec
