
                                 *****************
                                 * O   R   C   A *
                                 *****************

           --- An Ab Initio, DFT and Semiempirical electronic structure package ---

                  #######################################################
                  #                        -***-                        #
                  #          Department of theory and spectroscopy      #
                  #               Directorship: Frank Neese             #
                  #        Max Planck Institute fuer Kohlenforschung    #
                  #                Kaiser Wilhelm Platz 1               #
                  #                 D-45470 Muelheim/Ruhr               #
                  #                      Germany                        #
                  #                                                     #
                  #                  All rights reserved                #
                  #                        -***-                        #
                  #######################################################


                         Program Version 4.2.0 -  RELEASE  -


 With contributions from (in alphabetic order):
   Daniel Aravena         : Magnetic Suceptibility
   Michael Atanasov       : Ab Initio Ligand Field Theory (pilot matlab implementation)
   Alexander A. Auer      : GIAO ZORA, VPT2
   Ute Becker             : Parallelization
   Giovanni Bistoni       : ED, misc. LED, open-shell LED, HFLED
   Martin Brehm           : Molecular dynamics
   Dmytro Bykov           : SCF Hessian
   Vijay G. Chilkuri      : MRCI spin determinant printing, contributions to CSF-ICE
   Dipayan Datta          : RHF DLPNO-CCSD density
   Achintya Kumar Dutta   : EOM-CC, STEOM-CC
   Dmitry Ganyushin       : Spin-Orbit,Spin-Spin,Magnetic field MRCI
   Miquel Garcia          : C-PCM Hessian, Gaussian charge scheme
   Yang Guo               : DLPNO-NEVPT2, CIM, IAO-localization
   Andreas Hansen         : Spin unrestricted coupled pair/coupled cluster methods
   Benjamin Helmich-Paris : CASSCF linear response (MC-RPA)
   Lee Huntington         : MR-EOM, pCC
   Robert Izsak           : Overlap fitted RIJCOSX, COSX-SCS-MP3, EOM
   Christian Kollmar      : KDIIS, OOCD, Brueckner-CCSD(T), CCSD density
   Simone Kossmann        : Meta GGA functionals, TD-DFT gradient, OOMP2, MP2 Hessian
   Martin Krupicka        : AUTO-CI
   Lucas Lang             : DCDCAS
   Dagmar Lenk            : GEPOL surface, SMD
   Dimitrios Liakos       : Extrapolation schemes; Compound Job, initial MDCI parallelization
   Dimitrios Manganas     : Further ROCIS development; embedding schemes
   Dimitrios Pantazis     : SARC Basis sets
   Taras Petrenko         : DFT Hessian,TD-DFT gradient, ASA, ECA, R-Raman, ABS, FL, XAS/XES, NRVS
   Peter Pinski           : DLPNO-MP2, DLPNO-MP2 Gradient
   Christoph Reimann      : Effective Core Potentials
   Marius Retegan         : Local ZFS, SOC
   Christoph Riplinger    : Optimizer, TS searches, QM/MM, DLPNO-CCSD(T), (RO)-DLPNO pert. Triples
   Tobias Risthaus        : Range-separated hybrids, TD-DFT gradient, RPA, STAB
   Michael Roemelt        : Original ROCIS implementation
   Masaaki Saitow         : Open-shell DLPNO-CCSD energy and density
   Barbara Sandhoefer     : DKH picture change effects
   Avijit Sen             : IP-ROCIS
   Kantharuban Sivalingam : CASSCF convergence, NEVPT2, FIC-MRCI
   Bernardo de Souza      : ESD, SOC TD-DFT
   Georgi Stoychev        : AutoAux, RI-MP2 NMR
   Willem Van den Heuvel  : Paramagnetic NMR
   Boris Wezisla          : Elementary symmetry handling
   Frank Wennmohs         : Technical directorship


 We gratefully acknowledge several colleagues who have allowed us to
 interface, adapt or use parts of their codes:
   Stefan Grimme, W. Hujo, H. Kruse,             : VdW corrections, initial TS optimization,
                  C. Bannwarth                     DFT functionals, gCP, sTDA/sTD-DF
   Ed Valeev, F. Pavosevic, A. Kumar             : LibInt (2-el integral package), F12 methods
   Garnet Chan, S. Sharma, J. Yang, R. Olivares  : DMRG
   Ulf Ekstrom                                   : XCFun DFT Library
   Mihaly Kallay                                 : mrcc  (arbitrary order and MRCC methods)
   Andreas Klamt, Michael Diedenhofen            : otool_cosmo (COSMO solvation model)
   Jiri Pittner, Ondrej Demel                    : Mk-CCSD
   Frank Weinhold                                : gennbo (NPA and NBO analysis)
   Christopher J. Cramer and Donald G. Truhlar   : smd solvation model
   Lars Goerigk                                  : TD-DFT with DH, B97 family of functionals
   V. Asgeirsson, H. Jonsson                     : NEB implementation
   FAccTs GmbH                                   : IRC, NEB, NEB-TS, Multilevel, MM, QM/MM, CI optimization
   S Lehtola, MJT Oliveira, MAL Marques          : LibXC Library


 Your calculation uses the libint2 library for the computation of 2-el integrals
 For citations please refer to: http://libint.valeyev.net

 Your ORCA version has been built with support for libXC version: 4.2.3
 For citations please refer to: https://tddft.org/programs/libxc/

 This ORCA versions uses:
   CBLAS   interface :  Fast vector & matrix operations
   LAPACKE interface :  Fast linear algebra routines
   SCALAPACK package :  Parallel linear algebra routines


Your calculation utilizes the atom-pairwise dispersion correction
with the Becke-Johnson damping scheme (D3BJ)
Cite in your paper:
S.Grimme, S.Ehrlich, L.Goerigk, J Comput Chem, (2011), 32, 1456–1465 
S.Grimme, J.Antony, S.Ehrlich and H.Krieg, J.Chem.Phys., 132, (2010), 154104 
   

----- Orbital basis set information -----
Your calculation utilizes the basis: aug-cc-pVTZ 
    H, B-Ne : Obtained from the ccRepo (grant-hill.group.shef.ac.uk/ccrepo) Feb. 2017
              R. A. Kendall, T. H. Dunning, Jr., R. J. Harrison, J. Chem. Phys. 96, 6796 (1992)
         He : Obtained from the ccRepo (grant-hill.group.shef.ac.uk/ccrepo) Feb. 2017
              D. E. Woon, T. H. Dunning, Jr., J. Chem. Phys. 100, 2975 (1994)
  Li-Be, Na : Obtained from the ccRepo (grant-hill.group.shef.ac.uk/ccrepo) Feb. 2017
              B. P. Prascher, D. E. Woon, K. A. Peterson, T. H. Dunning, Jr., A. K. Wilson, Theor. Chem. Acc. 128, 69 (2011)
         Mg : Obtained from the Peterson Research Group Website (tyr0.chem.wsu.edu/~kipeters) Feb. 2017
              B. P. Prascher, D. E. Woon, K. A. Peterson, T. H. Dunning, Jr., A. K. Wilson, Theor. Chem. Acc. 128, 69 (2011)
      Al-Ar : Obtained from the ccRepo (grant-hill.group.shef.ac.uk/ccrepo) Feb. 2017
              D. E. Woon, T. H. Dunning, Jr., J. Chem. Phys. 98, 1358 (1993)
      Sc-Zn : Obtained from the ccRepo (grant-hill.group.shef.ac.uk/ccrepo) Feb. 2017
              N. B. Balabanov, K. A. Peterson, J. Chem. Phys. 123, 064107 (2005)
              N. B. Balabanov, K. A. Peterson, J. Chem. Phys. 125, 074110 (2006)
      Ga-Kr : Obtained from the ccRepo (grant-hill.group.shef.ac.uk/ccrepo) Feb. 2017
              A. K. Wilson, D. E. Woon, K. A. Peterson, T. H. Dunning, Jr., J. Chem. Phys. 110, 7667 (1999)
     Ag, Au : Obtained from the Peterson Research Group Website (tyr0.chem.wsu.edu/~kipeters) Feb. 2017
              K. A. Peterson, C. Puzzarini, Theor. Chem. Acc. 114, 283 (2005)

----- AuxJ basis set information -----
Your calculation utilizes the auxiliary basis: def2/J
   F. Weigend, Phys. Chem. Chem. Phys. 8, 1057 (2006).

================================================================================
                                        WARNINGS
                       Please study these warnings very carefully!
================================================================================


WARNING: your system is open-shell and RHF/RKS was chosen
  ===> : WILL SWITCH to UHF/UKS


INFO   : the flag for use of LIBINT has been found!

================================================================================
                                       INPUT FILE
================================================================================
NAME = 65_Mn.in
|  1> #
|  2> # 65_Mn tpss/aug-cc-pvtz
|  3> #
|  4> ! tpss d3bj aug-cc-pvtz def2/j grid4 nofinalgrid
|  5> 
|  6> *xyz 0 6
|  7> Mn 0.0 0.0 0.0
|  8> *
|  9> 
| 10> %pal
| 11> nprocs 24
| 12> end
| 13> 
| 14> 
| 15>                          ****END OF INPUT****
================================================================================

                       ****************************
                       * Single Point Calculation *
                       ****************************

---------------------------------
CARTESIAN COORDINATES (ANGSTROEM)
---------------------------------
  Mn     0.000000    0.000000    0.000000

----------------------------
CARTESIAN COORDINATES (A.U.)
----------------------------
  NO LB      ZA    FRAG     MASS         X           Y           Z
   0 Mn   25.0000    0    54.940    0.000000    0.000000    0.000000

--------------------------------
INTERNAL COORDINATES (ANGSTROEM)
--------------------------------
 Mn     0   0   0     0.000000000000     0.00000000     0.00000000

---------------------------
INTERNAL COORDINATES (A.U.)
---------------------------
 Mn     0   0   0     0.000000000000     0.00000000     0.00000000

---------------------
BASIS SET INFORMATION
---------------------
There are 1 groups of distinct atoms

 Group   1 Type Mn  : 116s77p23d3f2g contracted to 8s7p5d3f2g pattern {19191919191911/151515151511/77711/111/11}

Atom   0Mn   basis set group =>   1
---------------------------------
AUXILIARY/J BASIS SET INFORMATION
---------------------------------
There are 1 groups of distinct atoms

 Group   1 Type Mn  : 19s5p5d3f3g contracted to 8s5p5d2f3g pattern {121111111/11111/11111/21/111}

Atom   0Mn   basis set group =>   1


           ************************************************************
           *        Program running with 24 parallel MPI-processes    *
           *              working on a common directory               *
           ************************************************************
------------------------------------------------------------------------------
                           ORCA GTO INTEGRAL CALCULATION
                           -- RI-GTO INTEGRALS CHOSEN --
------------------------------------------------------------------------------

                         BASIS SET STATISTICS AND STARTUP INFO

Gaussian basis set:
 # of primitive gaussian shells          ...  221
 # of primitive gaussian functions       ...  501
 # of contracted shells                  ...   25
 # of contracted basis functions         ...   93
 Highest angular momentum                ...    4
 Maximum contraction depth               ...   19
Auxiliary gaussian basis set:
 # of primitive gaussian shells          ...   35
 # of primitive gaussian functions       ...  107
 # of contracted shells                  ...   23
 # of contracted aux-basis functions     ...   89
 Highest angular momentum                ...    4
 Maximum contraction depth               ...   12
Ratio of auxiliary to basis functions    ...  0.96
Integral package used                  ... LIBINT
 One Electron integrals                  ... done
 Ordering auxiliary basis shells         ... done
 Integral threshhold             Thresh  ...  1.000e-10
 Primitive cut-off               TCut    ...  1.000e-11
 Pre-screening matrix                    ... done
 Shell pair data                         ... 
 Ordering of the shell pairs             ... done (   0.000 sec) 325 of 325 pairs
 Determination of significant pairs      ... done (   0.000 sec)
 Creation of shell pair data             ... done (   0.001 sec)
 Storage of shell pair data              ... done (   0.086 sec)
 Shell pair data done in (   0.087 sec)
 Computing two index integrals           ... done
 Cholesky decomposition of the V-matrix  ... done


Timings:
 Total evaluation time                   ...   2.644 sec (  0.044 min)
 One electron matrix time                ...   0.029 sec (  0.000 min) =  1.1%
 Schwartz matrix evaluation time         ...   2.496 sec (  0.042 min) = 94.4%
 Two index repulsion integral time       ...   0.000 sec (  0.000 min) =  0.0%
 Cholesky decomposition of V             ...   0.001 sec (  0.000 min) =  0.0%
 Three index repulsion integral time     ...   0.000 sec (  0.000 min) =  0.0%



           ************************************************************
           *        Program running with 24 parallel MPI-processes    *
           *              working on a common directory               *
           ************************************************************
-------------------------------------------------------------------------------
                                 ORCA SCF
-------------------------------------------------------------------------------

------------
SCF SETTINGS
------------
Hamiltonian:
 Density Functional     Method          .... DFT(GTOs)
 Exchange Functional    Exchange        .... TPSS
 Correlation Functional Correlation     .... TPSS
 LDA part of GGA corr.  LDAOpt          .... PW91-LDA
 Gradients option       PostSCFGGA      .... off
   Density functional embedding theory  .... OFF
   NL short-range parameter             ....  5.000000
 RI-approximation to the Coulomb term is turned on
   Number of auxiliary basis functions  .... 89


General Settings:
 Integral files         IntName         .... 65_Mn
 Hartree-Fock type      HFTyp           .... UHF
 Total Charge           Charge          ....    0
 Multiplicity           Mult            ....    6
 Number of Electrons    NEL             ....   25
 Basis Dimension        Dim             ....   93
 Nuclear Repulsion      ENuc            ....      0.0000000000 Eh

Convergence Acceleration:
 DIIS                   CNVDIIS         .... on
   Start iteration      DIISMaxIt       ....    12
   Startup error        DIISStart       ....  0.200000
   # of expansion vecs  DIISMaxEq       ....     5
   Bias factor          DIISBfac        ....   1.050
   Max. coefficient     DIISMaxC        ....  10.000
 Newton-Raphson         CNVNR           .... off
 SOSCF                  CNVSOSCF        .... off
 Level Shifting         CNVShift        .... on
   Level shift para.    LevelShift      ....    0.2500
   Turn off err/grad.   ShiftErr        ....    0.0010
 Zerner damping         CNVZerner       .... off
 Static damping         CNVDamp         .... on
   Fraction old density DampFac         ....    0.7000
   Max. Damping (<1)    DampMax         ....    0.9800
   Min. Damping (>=0)   DampMin         ....    0.0000
   Turn off err/grad.   DampErr         ....    0.1000
 Fernandez-Rico         CNVRico         .... off

SCF Procedure:
 Maximum # iterations   MaxIter         ....   125
 SCF integral mode      SCFMode         .... Direct
   Integral package                     .... LIBINT
 Reset frequency        DirectResetFreq ....    20
 Integral Threshold     Thresh          ....  1.000e-10 Eh
 Primitive CutOff       TCut            ....  1.000e-11 Eh

Convergence Tolerance:
 Convergence Check Mode ConvCheckMode   .... Total+1el-Energy
 Convergence forced     ConvForced      .... 0
 Energy Change          TolE            ....  1.000e-06 Eh
 1-El. energy change                    ....  1.000e-03 Eh
 DIIS Error             TolErr          ....  1.000e-06


Diagonalization of the overlap matrix:
Smallest eigenvalue                        ... 1.644e-04
Time for diagonalization                   ...    0.003 sec
Threshold for overlap eigenvalues          ... 1.000e-08
Number of eigenvalues below threshold      ... 0
Time for construction of square roots      ...    0.002 sec
Total time needed                          ...    0.005 sec

-------------------
DFT GRID GENERATION
-------------------

General Integration Accuracy     IntAcc      ...  4.670
Radial Grid Type                 RadialGrid  ... Gauss-Chebyshev
Angular Grid (max. acc.)         AngularGrid ... Lebedev-302
Angular grid pruning method      GridPruning ... 3 (G Style)
Weight generation scheme         WeightScheme... Becke
Basis function cutoff            BFCut       ...    1.0000e-10
Integration weight cutoff        WCut        ...    1.0000e-14
Grids for H and He will be reduced by one unit

# of grid points (after initial pruning)     ...   9664 (   0.0 sec)
# of grid points (after weights+screening)   ...   9664 (   0.0 sec)
Grid point division into batches done        ...    0.1 sec
Reduced shell lists constructed in    0.1 sec

Total number of grid points                  ...     9664
Total number of batches                      ...      152
Average number of points per batch           ...       63
Average number of grid points per atom       ...     9664
Average number of shells per batch           ...    10.62 (42.50%)
Average number of basis functions per batch  ...    26.38 (28.36%)
Average number of large shells per batch     ...     4.88 (45.88%)
Average number of large basis fcns per batch ...    12.38 (46.92%)
Maximum spatial batch extension              ...  27.95, 22.27, 22.27 au
Average spatial batch extension              ...   0.96,  0.88,  0.86 au

Time for grid setup =    0.125 sec

------------------------------
INITIAL GUESS: MODEL POTENTIAL
------------------------------
Loading Hartree-Fock densities                     ... done
Calculating cut-offs                               ... done
Setting up the integral package                    ... done
Initializing the effective Hamiltonian             ... done
Starting the Coulomb interaction                   ... done (   0.0 sec)
Reading the grid                                   ... done
Mapping shells                                     ... done
Starting the XC term evaluation                    ... done (   0.0 sec)
  promolecular density results
     # of electrons  =     24.999991684
     EX              =    -50.566733472
     EC              =     -1.070326187
     EX+EC           =    -51.637059660
Transforming the Hamiltonian                       ... done (   0.0 sec)
Diagonalizing the Hamiltonian                      ... done (   0.0 sec)
Back transforming the eigenvectors                 ... done (   0.0 sec)
Now organizing SCF variables                       ... done
                      ------------------
                      INITIAL GUESS DONE (   0.2 sec)
                      ------------------
--------------
SCF ITERATIONS
--------------
ITER       Energy         Delta-E        Max-DP      RMS-DP      [F,P]     Damp
               ***  Starting incremental Fock matrix formation  ***
  0  -1150.9564798758   0.000000000000 0.06148709  0.00172706  0.1914817 0.7000
  1  -1150.9720053320  -0.015525456199 0.01905720  0.00040685  0.0482742 0.7000
                               ***Turning on DIIS***
  2  -1150.9755506478  -0.003545315781 0.06901313  0.00188028  0.0217837 0.0000
  3  -1150.9866505962  -0.011099948490 0.02574535  0.00079163  0.0115751 0.0000
  4  -1150.9870149099  -0.000364313631 0.00706445  0.00022172  0.0163588 0.0000
  5  -1150.9871965157  -0.000181605776 0.00706292  0.00009019  0.0085002 0.0000
  6  -1150.9873097708  -0.000113255153 0.00881518  0.00008548  0.0027377 0.0000
  7  -1150.9874111891  -0.000101418331 0.01044317  0.00009659  0.0032801 0.0000
  8  -1150.9875488679  -0.000137678759 0.01206032  0.00011292  0.0039665 0.0000
  9  -1150.9877296144  -0.000180746498 0.01440997  0.00013485  0.0046286 0.0000
 10  -1150.9880004074  -0.000270792995 0.01703820  0.00016258  0.0054861 0.0000
 11  -1150.9883831821  -0.000382774700 0.01947289  0.00019081  0.0075996 0.0000
 12  -1150.9888906852  -0.000507503101 0.02213043  0.00022620  0.0108472 0.0000
 13  -1150.9895539382  -0.000663252993 0.02447207  0.00026612  0.0152966 0.0000
 14  -1150.9903565162  -0.000802577990 0.02710841  0.00032044  0.0215137 0.0000
 15  -1150.9913437802  -0.000987264047 0.02907923  0.00037900  0.0290746 0.0000
 16  -1150.9923791210  -0.001035340793 0.03734866  0.00043626  0.0389575 0.0000
 17  -1150.9932645103  -0.000885389298 0.04525250  0.00048446  0.0509741 0.0000
 18  -1150.9937310178  -0.000466507514 0.05162270  0.00052046  0.0644012 0.0000
 19  -1150.9935033167   0.000227701141 0.05483453  0.00053553  0.0784649 0.0000
               *** Restarting incremental Fock matrix formation ***
                                   *** Resetting DIIS ***
 20  -1150.9927760987   0.000727217941 0.12153852  0.00384668  0.0906496 0.0000
 21  -1150.9800301427   0.012745956010 0.03256490  0.00106114  0.1577306 0.7000
 22  -1150.9884618249  -0.008431682216 0.02385123  0.00080123  0.1215558 0.7000
 23  -1150.9956127060  -0.007150881094 0.09900725  0.00204688  0.0866719 0.0000
 24  -1151.0077811893  -0.012168483297 0.04762570  0.00053522  0.0130627 0.0000
 25  -1151.0093777644  -0.001596575075 0.03776266  0.00040149  0.0141018 0.0000
 26  -1151.0107587914  -0.001381027003 0.03105995  0.00039131  0.0085744 0.0000
 27  -1151.0117320074  -0.000973215946 0.02955820  0.00032155  0.0119726 0.0000
 28  -1151.0125313439  -0.000799336553 0.03037307  0.00033569  0.0093857 0.0000
 29  -1151.0130627727  -0.000531428784 0.02416227  0.00027221  0.0100521 0.0000
 30  -1151.0136266607  -0.000563887985 0.04016272  0.00043122  0.0063266 0.0000
 31  -1151.0135475997   0.000079060999 0.01709086  0.00020462  0.0157635 0.0000
 32  -1151.0141232361  -0.000575636366 0.01784110  0.00020285  0.0097061 0.0000
 33  -1151.0144564704  -0.000333234396 0.01462211  0.00017800  0.0076604 0.0000
 34  -1151.0147391998  -0.000282729334 0.02054225  0.00021631  0.0060622 0.0000
 35  -1151.0148530780  -0.000113878199 0.01280573  0.00015026  0.0071125 0.0000
 36  -1151.0150471733  -0.000194095317 0.01877100  0.00019475  0.0054855 0.0000
 37  -1151.0150933599  -0.000046186594 0.01151081  0.00024623  0.0079312 0.0000
 38  -1151.0152437377  -0.000150377850 0.00899874  0.00013538  0.0065004 0.0000
 39  -1151.0153739066  -0.000130168889 0.00767637  0.00009326  0.0026244 0.0000
               *** Restarting incremental Fock matrix formation ***
                                   *** Resetting DIIS ***
 40  -1151.0154420900  -0.000068183376 0.00683243  0.00009441  0.0019947 0.0000
 41  -1151.0154914103  -0.000049320319 0.00652877  0.00010365  0.0024748 0.0000
 42  -1151.0155338692  -0.000042458900 0.00912728  0.00009648  0.0018088 0.0000
 43  -1151.0155794578  -0.000045588610 0.00762507  0.00008119  0.0020667 0.0000
 44  -1151.0156168427  -0.000037384840 0.00886104  0.00009283  0.0019683 0.0000
 45  -1151.0156482723  -0.000031429595 0.00394503  0.00005581  0.0021693 0.0000
 46  -1151.0156777502  -0.000029477952 0.01265104  0.00014168  0.0015302 0.0000
 47  -1151.0156734797   0.000004270487 0.00470066  0.00006014  0.0043103 0.0000
 48  -1151.0157143192  -0.000040839438 0.00378745  0.00004921  0.0027729 0.0000
 49  -1151.0157471861  -0.000032866961 0.00600691  0.00007371  0.0014600 0.0000
 50  -1151.0157577436  -0.000010557445 0.00322278  0.00004225  0.0020861 0.0000
 51  -1151.0157787338  -0.000020990194 0.00359424  0.00004715  0.0012156 0.0000
 52  -1151.0157896270  -0.000010893256 0.00420801  0.00004879  0.0013210 0.0000
 53  -1151.0157978276  -0.000008200554 0.00255218  0.00003249  0.0015907 0.0000
 54  -1151.0158111164  -0.000013288805 0.00492765  0.00005990  0.0010198 0.0000
 55  -1151.0158142991  -0.000003182749 0.00235993  0.00003184  0.0019008 0.0000
 56  -1151.0158275595  -0.000013260347 0.02677699  0.00031948  0.0009564 0.0000
 57  -1151.0158674648  -0.000039905356 0.00057791  0.00000684  0.0023551 0.0000
 58  -1151.0158660285   0.000001436329 0.00037958  0.00000367  0.0024532 0.0000
 59  -1151.0158648133   0.000001215229 0.00097418  0.00001146  0.0025249 0.0000
               *** Restarting incremental Fock matrix formation ***
                                   *** Resetting DIIS ***
 60  -1151.0158577830   0.000007030259 0.00580897  0.00015409  0.0029762 0.0000
 61  -1151.0158559939   0.000001789136 0.00489520  0.00014861  0.0043321 0.0000
 62  -1151.0158777434  -0.000021749534 0.00874961  0.00009968  0.0008010 0.0000
 63  -1151.0158828963  -0.000005152858 0.00088656  0.00001281  0.0014099 0.0000
 64  -1151.0158865267  -0.000003630375 0.00367498  0.00004592  0.0007734 0.0000
 65  -1151.0158893869  -0.000002860278 0.00075829  0.00000901  0.0008101 0.0000
 66  -1151.0158901854  -0.000000798449 0.00055477  0.00000649  0.0007910 0.0000
 67  -1151.0158907511  -0.000000565715 0.00700655  0.00009108  0.0007871 0.0000
 68  -1151.0158956233  -0.000004872200 0.00100506  0.00001336  0.0001643 0.0000
 69  -1151.0158955505   0.000000072840 0.00173556  0.00002062  0.0002968 0.0000
 70  -1151.0158963516  -0.000000801147 0.00263026  0.00003079  0.0002107 0.0000
 71  -1151.0158971092  -0.000000757593 0.00195681  0.00002227  0.0000880 0.0000
 72  -1151.0158974594  -0.000000350153 0.00091336  0.00001010  0.0000246 0.0000
                 **** Energy Check signals convergence ****

               *****************************************************
               *                     SUCCESS                       *
               *           SCF CONVERGED AFTER  73 CYCLES          *
               *****************************************************


----------------
TOTAL SCF ENERGY
----------------

Total Energy       :        -1151.01589772 Eh          -31320.73489 eV

Components:
Nuclear Repulsion  :            0.00000000 Eh               0.00000 eV
Electronic Energy  :        -1151.01589772 Eh          -31320.73489 eV
One Electron Energy:        -1585.03463402 Eh          -43130.98513 eV
Two Electron Energy:          434.01873630 Eh           11810.25024 eV

Virial components:
Potential Energy   :        -2300.42307176 Eh          -62597.69419 eV
Kinetic Energy     :         1149.40717404 Eh           31276.95930 eV
Virial Ratio       :            2.00139961


DFT components:
N(Alpha)           :       15.000002282261 electrons
N(Beta)            :       10.000001533429 electrons
N(Total)           :       25.000003815690 electrons
E(X)               :      -51.017945860011 Eh       
E(C)               :       -1.048288172568 Eh       
E(XC)              :      -52.066234032579 Eh       
DFET-embed. en.    :        0.000000000000 Eh       

---------------
SCF CONVERGENCE
---------------

  Last Energy change         ...   -2.5827e-07  Tolerance :   1.0000e-06
  Last MAX-Density change    ...    1.3516e-04  Tolerance :   1.0000e-05
  Last RMS-Density change    ...    1.5167e-06  Tolerance :   1.0000e-06
  Last DIIS Error            ...    3.6630e-06  Tolerance :   1.0000e-06

             **** THE GBW FILE WAS UPDATED (65_Mn.gbw) ****
             **** DENSITY FILE WAS UPDATED (65_Mn.scfp) ****
             **** ENERGY FILE WAS UPDATED (65_Mn.en.tmp) ****
----------------------
UHF SPIN CONTAMINATION
----------------------

Warning: in a DFT calculation there is little theoretical justification to 
         calculate <S**2> as in Hartree-Fock theory. We will do it anyways
         but you should keep in mind that the values have only limited relevance

Expectation value of <S**2>     :     8.765281
Ideal value S*(S+1) for S=2.5   :     8.750000
Deviation                       :     0.015281

             **** THE GBW FILE WAS UPDATED (65_Mn.gbw) ****
             **** DENSITY FILE WAS UPDATED (65_Mn.scfp) ****
----------------
ORBITAL ENERGIES
----------------
                 SPIN UP ORBITALS
  NO   OCC          E(Eh)            E(eV) 
   0   1.0000    -234.718192     -6387.0067 
   1   1.0000     -27.019481      -735.2375 
   2   1.0000     -23.105181      -628.7239 
   3   1.0000     -23.104771      -628.7128 
   4   1.0000     -23.104749      -628.7122 
   5   1.0000      -3.179598       -86.5213 
   6   1.0000      -2.062673       -56.1282 
   7   1.0000      -2.062641       -56.1273 
   8   1.0000      -2.059872       -56.0520 
   9   1.0000      -0.302701        -8.2369 
  10   1.0000      -0.302701        -8.2369 
  11   1.0000      -0.299827        -8.1587 
  12   1.0000      -0.299825        -8.1586 
  13   1.0000      -0.296975        -8.0811 
  14   1.0000      -0.198313        -5.3964 
  15   0.0000      -0.057676        -1.5694 
  16   0.0000      -0.057658        -1.5690 
  17   0.0000      -0.051807        -1.4097 
  18   0.0000       0.002928         0.0797 
  19   0.0000       0.026203         0.7130 
  20   0.0000       0.026208         0.7132 
  21   0.0000       0.027771         0.7557 
  22   0.0000       0.046817         1.2739 
  23   0.0000       0.046817         1.2739 
  24   0.0000       0.048192         1.3114 
  25   0.0000       0.048197         1.3115 
  26   0.0000       0.048643         1.3237 
  27   0.0000       0.091599         2.4925 
  28   0.0000       0.147961         4.0262 
  29   0.0000       0.147974         4.0266 
  30   0.0000       0.151952         4.1348 
  31   0.0000       0.206365         5.6155 
  32   0.0000       0.206365         5.6155 
  33   0.0000       0.209433         5.6990 
  34   0.0000       0.209442         5.6992 
  35   0.0000       0.210645         5.7319 
  36   0.0000       0.416560        11.3352 
  37   0.0000       0.621870        16.9220 
  38   0.0000       0.621870        16.9220 
  39   0.0000       0.626650        17.0520 
  40   0.0000       0.626650        17.0520 
  41   0.0000       0.629804        17.1379 
  42   0.0000       0.629825        17.1384 
  43   0.0000       0.630875        17.1670 
  44   0.0000       0.640578        17.4310 
  45   0.0000       0.640599        17.4316 
  46   0.0000       0.648026        17.6337 
  47   0.0000       0.870475        23.6868 
  48   0.0000       0.870475        23.6868 
  49   0.0000       0.875485        23.8232 
  50   0.0000       0.875500        23.8236 
  51   0.0000       0.878184        23.8966 
  52   0.0000       2.076555        56.5059 
  53   0.0000       2.076555        56.5059 
  54   0.0000       2.082367        56.6641 
  55   0.0000       2.082367        56.6641 
  56   0.0000       2.086722        56.7826 
  57   0.0000       2.086744        56.7832 
  58   0.0000       2.088349        56.8269 
  59   0.0000       2.432139        66.1819 
  60   0.0000       2.532860        68.9226 
  61   0.0000       2.532869        68.9229 
  62   0.0000       2.540669        69.1351 
  63   0.0000       2.578100        70.1537 
  64   0.0000       2.578100        70.1537 
  65   0.0000       2.583244        70.2936 
  66   0.0000       2.583244        70.2936 
  67   0.0000       2.587447        70.4080 
  68   0.0000       2.587447        70.4080 
  69   0.0000       2.590180        70.4824 
  70   0.0000       2.590207        70.4831 
  71   0.0000       2.591149        70.5088 
  72   0.0000       3.692144       100.4684 
  73   0.0000       3.692144       100.4684 
  74   0.0000       3.695303       100.5543 
  75   0.0000       3.695304       100.5543 
  76   0.0000       3.697868       100.6241 
  77   0.0000       7.231151       196.7696 
  78   0.0000       7.231151       196.7696 
  79   0.0000       7.231163       196.7699 
  80   0.0000       7.231163       196.7699 
  81   0.0000       7.233112       196.8230 
  82   0.0000       7.233128       196.8234 
  83   0.0000       7.234103       196.8500 
  84   0.0000       7.811990       212.5751 
  85   0.0000       7.811990       212.5751 
  86   0.0000       7.814837       212.6525 
  87   0.0000       7.814837       212.6525 
  88   0.0000       7.817959       212.7375 
  89   0.0000       7.817959       212.7375 
  90   0.0000       7.820272       212.8004 
  91   0.0000       7.820276       212.8005 
  92   0.0000       7.821120       212.8235 

                 SPIN DOWN ORBITALS
  NO   OCC          E(Eh)            E(eV) 
   0   1.0000    -234.717237     -6386.9807 
   1   1.0000     -26.947294      -733.2732 
   2   1.0000     -23.047830      -627.1633 
   3   1.0000     -23.046295      -627.1216 
   4   1.0000     -23.046278      -627.1211 
   5   1.0000      -2.987243       -81.2870 
   6   1.0000      -1.870098       -50.8880 
   7   1.0000      -1.870089       -50.8877 
   8   1.0000      -1.866726       -50.7962 
   9   1.0000      -0.157787        -4.2936 
  10   0.0000      -0.130585        -3.5534 
  11   0.0000      -0.127718        -3.4754 
  12   0.0000      -0.127718        -3.4754 
  13   0.0000      -0.127032        -3.4567 
  14   0.0000      -0.127000        -3.4559 
  15   0.0000      -0.042609        -1.1594 
  16   0.0000      -0.036319        -0.9883 
  17   0.0000      -0.036285        -0.9874 
  18   0.0000       0.003684         0.1003 
  19   0.0000       0.026666         0.7256 
  20   0.0000       0.028428         0.7736 
  21   0.0000       0.028439         0.7739 
  22   0.0000       0.048750         1.3266 
  23   0.0000       0.048794         1.3278 
  24   0.0000       0.048797         1.3278 
  25   0.0000       0.049092         1.3359 
  26   0.0000       0.049092         1.3359 
  27   0.0000       0.103365         2.8127 
  28   0.0000       0.162968         4.4346 
  29   0.0000       0.167822         4.5667 
  30   0.0000       0.167848         4.5674 
  31   0.0000       0.227164         6.1815 
  32   0.0000       0.227658         6.1949 
  33   0.0000       0.227674         6.1953 
  34   0.0000       0.230764         6.2794 
  35   0.0000       0.230764         6.2794 
  36   0.0000       0.465722        12.6730 
  37   0.0000       0.662339        18.0231 
  38   0.0000       0.663287        18.0489 
  39   0.0000       0.663319        18.0498 
  40   0.0000       0.665996        18.1227 
  41   0.0000       0.665996        18.1227 
  42   0.0000       0.672635        18.3033 
  43   0.0000       0.672635        18.3033 
  44   0.0000       0.707062        19.2401 
  45   0.0000       0.717178        19.5154 
  46   0.0000       0.717212        19.5163 
  47   0.0000       0.962446        26.1895 
  48   0.0000       0.966095        26.2888 
  49   0.0000       0.966140        26.2900 
  50   0.0000       0.972602        26.4658 
  51   0.0000       0.972602        26.4658 
  52   0.0000       2.205086        60.0034 
  53   0.0000       2.205086        60.0034 
  54   0.0000       2.205611        60.0177 
  55   0.0000       2.206483        60.0415 
  56   0.0000       2.206485        60.0415 
  57   0.0000       2.208717        60.1022 
  58   0.0000       2.208717        60.1022 
  59   0.0000       2.568478        69.8918 
  60   0.0000       2.665254        72.5252 
  61   0.0000       2.665270        72.5257 
  62   0.0000       2.666177        72.5504 
  63   0.0000       2.689919        73.1964 
  64   0.0000       2.690365        73.2086 
  65   0.0000       2.690373        73.2088 
  66   0.0000       2.691621        73.2427 
  67   0.0000       2.691622        73.2427 
  68   0.0000       2.692054        73.2545 
  69   0.0000       2.692054        73.2545 
  70   0.0000       2.693593        73.2964 
  71   0.0000       2.693593        73.2964 
  72   0.0000       3.845519       104.6419 
  73   0.0000       3.845519       104.6419 
  74   0.0000       3.846339       104.6642 
  75   0.0000       3.847501       104.6958 
  76   0.0000       3.847512       104.6961 
  77   0.0000       7.455234       202.8672 
  78   0.0000       7.455234       202.8672 
  79   0.0000       7.460748       203.0173 
  80   0.0000       7.460749       203.0173 
  81   0.0000       7.460924       203.0221 
  82   0.0000       7.461172       203.0288 
  83   0.0000       7.461176       203.0289 
  84   0.0000       7.969981       216.8742 
  85   0.0000       7.969981       216.8742 
  86   0.0000       7.973991       216.9833 
  87   0.0000       7.973991       216.9833 
  88   0.0000       7.976384       217.0484 
  89   0.0000       7.976384       217.0484 
  90   0.0000       7.977941       217.0908 
  91   0.0000       7.977947       217.0910 
  92   0.0000       7.978456       217.1048 

                    ********************************
                    * MULLIKEN POPULATION ANALYSIS *
                    ********************************

--------------------------------------------
MULLIKEN ATOMIC CHARGES AND SPIN POPULATIONS
--------------------------------------------
   0 Mn:   -0.000000    5.000000
Sum of atomic charges         :   -0.0000000
Sum of atomic spin populations:    5.0000000

-----------------------------------------------------
MULLIKEN REDUCED ORBITAL CHARGES AND SPIN POPULATIONS
-----------------------------------------------------
CHARGE
  0 Mns       :     7.940804  s :     7.940804
      pz      :     3.999999  p :    11.999996
      px      :     3.999999
      py      :     3.999998
      dz2     :     1.014633  d :     5.059186
      dxz     :     1.000001
      dyz     :     1.000004
      dx2y2   :     1.001071
      dxy     :     1.043477
      f0      :     0.000000  f :     0.000004
      f+1     :     0.000000
      f-1     :     0.000001
      f+2     :     0.000000
      f-2     :     0.000001
      f+3     :     0.000001
      f-3     :     0.000001
      g0      :     0.000001  g :     0.000010
      g+1     :     0.000001
      g-1     :     0.000001
      g+2     :     0.000000
      g-2     :     0.000001
      g+3     :     0.000001
      g-3     :     0.000001
      g+4     :     0.000002
      g-4     :     0.000002

SPIN
  0 Mns       :     0.059053  s :     0.059053
      pz      :    -0.000000  p :    -0.000000
      px      :    -0.000000
      py      :    -0.000000
      dz2     :     0.985400  d :     4.940938
      dxz     :     0.999996
      dyz     :     0.999993
      dx2y2   :     0.998927
      dxy     :     0.956623
      f0      :     0.000000  f :     0.000000
      f+1     :     0.000000
      f-1     :     0.000000
      f+2     :     0.000000
      f-2     :     0.000000
      f+3     :     0.000000
      f-3     :     0.000000
      g0      :     0.000001  g :     0.000009
      g+1     :     0.000001
      g-1     :     0.000001
      g+2     :     0.000000
      g-2     :     0.000001
      g+3     :     0.000001
      g-3     :     0.000001
      g+4     :     0.000002
      g-4     :     0.000002


                     *******************************
                     * LOEWDIN POPULATION ANALYSIS *
                     *******************************

-------------------------------------------
LOEWDIN ATOMIC CHARGES AND SPIN POPULATIONS
-------------------------------------------
   0 Mn:   -0.000000    5.000000

----------------------------------------------------
LOEWDIN REDUCED ORBITAL CHARGES AND SPIN POPULATIONS
----------------------------------------------------
CHARGE
  0 Mns       :     7.940804  s :     7.940804
      pz      :     3.999999  p :    11.999996
      px      :     3.999999
      py      :     3.999998
      dz2     :     1.014633  d :     5.059186
      dxz     :     1.000001
      dyz     :     1.000004
      dx2y2   :     1.001071
      dxy     :     1.043477
      f0      :     0.000000  f :     0.000004
      f+1     :     0.000000
      f-1     :     0.000001
      f+2     :     0.000000
      f-2     :     0.000001
      f+3     :     0.000001
      f-3     :     0.000001
      g0      :     0.000001  g :     0.000010
      g+1     :     0.000001
      g-1     :     0.000001
      g+2     :     0.000000
      g-2     :     0.000001
      g+3     :     0.000001
      g-3     :     0.000001
      g+4     :     0.000002
      g-4     :     0.000002

SPIN
  0 Mns       :     0.059053  s :     0.059053
      pz      :    -0.000000  p :    -0.000000
      px      :    -0.000000
      py      :    -0.000000
      dz2     :     0.985400  d :     4.940938
      dxz     :     0.999996
      dyz     :     0.999993
      dx2y2   :     0.998927
      dxy     :     0.956623
      f0      :     0.000000  f :     0.000000
      f+1     :     0.000000
      f-1     :     0.000000
      f+2     :     0.000000
      f-2     :     0.000000
      f+3     :     0.000000
      f-3     :     0.000000
      g0      :     0.000001  g :     0.000009
      g+1     :     0.000001
      g-1     :     0.000001
      g+2     :     0.000000
      g-2     :     0.000001
      g+3     :     0.000001
      g-3     :     0.000001
      g+4     :     0.000002
      g-4     :     0.000002


                      *****************************
                      * MAYER POPULATION ANALYSIS *
                      *****************************

  NA   - Mulliken gross atomic population
  ZA   - Total nuclear charge
  QA   - Mulliken gross atomic charge
  VA   - Mayer's total valence
  BVA  - Mayer's bonded valence
  FA   - Mayer's free valence

  ATOM       NA         ZA         QA         VA         BVA        FA
  0 Mn    25.0000    25.0000    -0.0000     5.0306     0.0000     5.0306

  Mayer bond orders larger than 0.100000


-------
TIMINGS
-------

Total SCF time: 0 days 0 hours 0 min 10 sec 

Total time                  ....      10.955 sec
Sum of individual times     ....      10.741 sec  ( 98.1%)

Fock matrix formation       ....      10.222 sec  ( 93.3%)
  Split-RI-J                ....       7.647 sec  ( 74.8% of F)
  XC integration            ....       2.276 sec  ( 22.3% of F)
    Basis function eval.    ....       0.209 sec  (  9.2% of XC)
    Density eval.           ....       0.154 sec  (  6.8% of XC)
    XC-Functional eval.     ....       0.066 sec  (  2.9% of XC)
    XC-Potential eval.      ....       0.409 sec  ( 18.0% of XC)
Diagonalization             ....       0.168 sec  (  1.5%)
Density matrix formation    ....       0.030 sec  (  0.3%)
Population analysis         ....       0.004 sec  (  0.0%)
Initial guess               ....       0.106 sec  (  1.0%)
Orbital Transformation      ....       0.000 sec  (  0.0%)
Orbital Orthonormalization  ....       0.000 sec  (  0.0%)
DIIS solution               ....       0.085 sec  (  0.8%)
Grid generation             ....       0.125 sec  (  1.1%)


-------------------------------------------------------------------------------
                          DFT DISPERSION CORRECTION                            
                                                                               
                              DFTD3 V3.1  Rev 1                                
                          USING Becke-Johnson damping                          
-------------------------------------------------------------------------------
The TPSS functional is recognized
Active option DFTDOPT                   ...         4   

molecular C6(AA) [au] = 802.732267 


            DFT-D V3
 parameters
 s6 scaling factor         :     1.0000 
 a1 scaling factor         :     0.4535 
 s8 scaling factor         :     1.9435 
 a2 scaling factor         :     4.4752 
 ad hoc parameters k1-k3   :    16.0000     1.3333    -4.0000 

 Edisp/kcal,au: -0.000000000000  -0.000000000000 
 E6   /kcal   :  -0.000000000 
 E8   /kcal   :  -0.000000000 
 % E8         :          -nan 

-------------------------   ----------------
Dispersion correction            0.000000000
-------------------------   ----------------


-------------------------   --------------------
FINAL SINGLE POINT ENERGY     -1151.015897717618
-------------------------   --------------------


                            ***************************************
                            *     ORCA property calculations      *
                            ***************************************

                                    ---------------------
                                    Active property flags
                                    ---------------------
   (+) Dipole Moment


------------------------------------------------------------------------------
                       ORCA ELECTRIC PROPERTIES CALCULATION
------------------------------------------------------------------------------

Dipole Moment Calculation                       ... on
Quadrupole Moment Calculation                   ... off
Polarizability Calculation                      ... off
GBWName                                         ... 65_Mn.gbw
Electron density file                           ... 65_Mn.scfp
The origin for moment calculation is the CENTER OF MASS  = ( 0.000000,  0.000000  0.000000)

-------------
DIPOLE MOMENT
-------------
                                X             Y             Z
Electronic contribution:      0.00000      -0.00000      -0.00000
Nuclear contribution   :      0.00000       0.00000       0.00000
                        -----------------------------------------
Total Dipole Moment    :      0.00000      -0.00000      -0.00000
                        -----------------------------------------
Magnitude (a.u.)       :      0.00000
Magnitude (Debye)      :      0.00000



--------------------
Rotational spectrum 
--------------------
 
Rotational constants in cm-1:     0.000000     0.000000     0.000000 
Rotational constants in MHz :     0.000000     0.000000     0.000000 

 Dipole components along the rotational axes: 
x,y,z [a.u.] :     0.000000    -0.000000    -0.000000 
x,y,z [Debye]:     0.000000    -0.000000    -0.000000 

 

Timings for individual modules:

Sum of individual times         ...       14.441 sec (=   0.241 min)
GTO integral calculation        ...        3.166 sec (=   0.053 min)  21.9 %
SCF iterations                  ...       11.276 sec (=   0.188 min)  78.1 %
                             ****ORCA TERMINATED NORMALLY****
TOTAL RUN TIME: 0 days 0 hours 0 minutes 15 seconds 38 msec
