
                                 *****************
                                 * O   R   C   A *
                                 *****************

           --- An Ab Initio, DFT and Semiempirical electronic structure package ---

                  #######################################################
                  #                        -***-                        #
                  #          Department of theory and spectroscopy      #
                  #               Directorship: Frank Neese             #
                  #        Max Planck Institute fuer Kohlenforschung    #
                  #                Kaiser Wilhelm Platz 1               #
                  #                 D-45470 Muelheim/Ruhr               #
                  #                      Germany                        #
                  #                                                     #
                  #                  All rights reserved                #
                  #                        -***-                        #
                  #######################################################


                         Program Version 4.2.0 -  RELEASE  -


 With contributions from (in alphabetic order):
   Daniel Aravena         : Magnetic Suceptibility
   Michael Atanasov       : Ab Initio Ligand Field Theory (pilot matlab implementation)
   Alexander A. Auer      : GIAO ZORA, VPT2
   Ute Becker             : Parallelization
   Giovanni Bistoni       : ED, misc. LED, open-shell LED, HFLED
   Martin Brehm           : Molecular dynamics
   Dmytro Bykov           : SCF Hessian
   Vijay G. Chilkuri      : MRCI spin determinant printing, contributions to CSF-ICE
   Dipayan Datta          : RHF DLPNO-CCSD density
   Achintya Kumar Dutta   : EOM-CC, STEOM-CC
   Dmitry Ganyushin       : Spin-Orbit,Spin-Spin,Magnetic field MRCI
   Miquel Garcia          : C-PCM Hessian, Gaussian charge scheme
   Yang Guo               : DLPNO-NEVPT2, CIM, IAO-localization
   Andreas Hansen         : Spin unrestricted coupled pair/coupled cluster methods
   Benjamin Helmich-Paris : CASSCF linear response (MC-RPA)
   Lee Huntington         : MR-EOM, pCC
   Robert Izsak           : Overlap fitted RIJCOSX, COSX-SCS-MP3, EOM
   Christian Kollmar      : KDIIS, OOCD, Brueckner-CCSD(T), CCSD density
   Simone Kossmann        : Meta GGA functionals, TD-DFT gradient, OOMP2, MP2 Hessian
   Martin Krupicka        : AUTO-CI
   Lucas Lang             : DCDCAS
   Dagmar Lenk            : GEPOL surface, SMD
   Dimitrios Liakos       : Extrapolation schemes; Compound Job, initial MDCI parallelization
   Dimitrios Manganas     : Further ROCIS development; embedding schemes
   Dimitrios Pantazis     : SARC Basis sets
   Taras Petrenko         : DFT Hessian,TD-DFT gradient, ASA, ECA, R-Raman, ABS, FL, XAS/XES, NRVS
   Peter Pinski           : DLPNO-MP2, DLPNO-MP2 Gradient
   Christoph Reimann      : Effective Core Potentials
   Marius Retegan         : Local ZFS, SOC
   Christoph Riplinger    : Optimizer, TS searches, QM/MM, DLPNO-CCSD(T), (RO)-DLPNO pert. Triples
   Tobias Risthaus        : Range-separated hybrids, TD-DFT gradient, RPA, STAB
   Michael Roemelt        : Original ROCIS implementation
   Masaaki Saitow         : Open-shell DLPNO-CCSD energy and density
   Barbara Sandhoefer     : DKH picture change effects
   Avijit Sen             : IP-ROCIS
   Kantharuban Sivalingam : CASSCF convergence, NEVPT2, FIC-MRCI
   Bernardo de Souza      : ESD, SOC TD-DFT
   Georgi Stoychev        : AutoAux, RI-MP2 NMR
   Willem Van den Heuvel  : Paramagnetic NMR
   Boris Wezisla          : Elementary symmetry handling
   Frank Wennmohs         : Technical directorship


 We gratefully acknowledge several colleagues who have allowed us to
 interface, adapt or use parts of their codes:
   Stefan Grimme, W. Hujo, H. Kruse,             : VdW corrections, initial TS optimization,
                  C. Bannwarth                     DFT functionals, gCP, sTDA/sTD-DF
   Ed Valeev, F. Pavosevic, A. Kumar             : LibInt (2-el integral package), F12 methods
   Garnet Chan, S. Sharma, J. Yang, R. Olivares  : DMRG
   Ulf Ekstrom                                   : XCFun DFT Library
   Mihaly Kallay                                 : mrcc  (arbitrary order and MRCC methods)
   Andreas Klamt, Michael Diedenhofen            : otool_cosmo (COSMO solvation model)
   Jiri Pittner, Ondrej Demel                    : Mk-CCSD
   Frank Weinhold                                : gennbo (NPA and NBO analysis)
   Christopher J. Cramer and Donald G. Truhlar   : smd solvation model
   Lars Goerigk                                  : TD-DFT with DH, B97 family of functionals
   V. Asgeirsson, H. Jonsson                     : NEB implementation
   FAccTs GmbH                                   : IRC, NEB, NEB-TS, Multilevel, MM, QM/MM, CI optimization
   S Lehtola, MJT Oliveira, MAL Marques          : LibXC Library


 Your calculation uses the libint2 library for the computation of 2-el integrals
 For citations please refer to: http://libint.valeyev.net

 Your ORCA version has been built with support for libXC version: 4.2.3
 For citations please refer to: https://tddft.org/programs/libxc/

 This ORCA versions uses:
   CBLAS   interface :  Fast vector & matrix operations
   LAPACKE interface :  Fast linear algebra routines
   SCALAPACK package :  Parallel linear algebra routines


Your calculation utilizes the atom-pairwise dispersion correction
with the Becke-Johnson damping scheme (D3BJ)
Cite in your paper:
S.Grimme, S.Ehrlich, L.Goerigk, J Comput Chem, (2011), 32, 1456–1465 
S.Grimme, J.Antony, S.Ehrlich and H.Krieg, J.Chem.Phys., 132, (2010), 154104 
   

----- Orbital basis set information -----
Your calculation utilizes the basis: aug-cc-pVTZ 
    H, B-Ne : Obtained from the ccRepo (grant-hill.group.shef.ac.uk/ccrepo) Feb. 2017
              R. A. Kendall, T. H. Dunning, Jr., R. J. Harrison, J. Chem. Phys. 96, 6796 (1992)
         He : Obtained from the ccRepo (grant-hill.group.shef.ac.uk/ccrepo) Feb. 2017
              D. E. Woon, T. H. Dunning, Jr., J. Chem. Phys. 100, 2975 (1994)
  Li-Be, Na : Obtained from the ccRepo (grant-hill.group.shef.ac.uk/ccrepo) Feb. 2017
              B. P. Prascher, D. E. Woon, K. A. Peterson, T. H. Dunning, Jr., A. K. Wilson, Theor. Chem. Acc. 128, 69 (2011)
         Mg : Obtained from the Peterson Research Group Website (tyr0.chem.wsu.edu/~kipeters) Feb. 2017
              B. P. Prascher, D. E. Woon, K. A. Peterson, T. H. Dunning, Jr., A. K. Wilson, Theor. Chem. Acc. 128, 69 (2011)
      Al-Ar : Obtained from the ccRepo (grant-hill.group.shef.ac.uk/ccrepo) Feb. 2017
              D. E. Woon, T. H. Dunning, Jr., J. Chem. Phys. 98, 1358 (1993)
      Sc-Zn : Obtained from the ccRepo (grant-hill.group.shef.ac.uk/ccrepo) Feb. 2017
              N. B. Balabanov, K. A. Peterson, J. Chem. Phys. 123, 064107 (2005)
              N. B. Balabanov, K. A. Peterson, J. Chem. Phys. 125, 074110 (2006)
      Ga-Kr : Obtained from the ccRepo (grant-hill.group.shef.ac.uk/ccrepo) Feb. 2017
              A. K. Wilson, D. E. Woon, K. A. Peterson, T. H. Dunning, Jr., J. Chem. Phys. 110, 7667 (1999)
     Ag, Au : Obtained from the Peterson Research Group Website (tyr0.chem.wsu.edu/~kipeters) Feb. 2017
              K. A. Peterson, C. Puzzarini, Theor. Chem. Acc. 114, 283 (2005)

----- AuxJ basis set information -----
Your calculation utilizes the auxiliary basis: def2/J
   F. Weigend, Phys. Chem. Chem. Phys. 8, 1057 (2006).

================================================================================
                                        WARNINGS
                       Please study these warnings very carefully!
================================================================================


WARNING: your system is open-shell and RHF/RKS was chosen
  ===> : WILL SWITCH to UHF/UKS


INFO   : the flag for use of LIBINT has been found!

================================================================================
                                       INPUT FILE
================================================================================
NAME = 68_Ni.in
|  1> #
|  2> # 68_Ni tpss/aug-cc-pvtz
|  3> #
|  4> ! tpss d3bj aug-cc-pvtz def2/j grid4 nofinalgrid
|  5> 
|  6> *xyz 0 3
|  7> Ni 0.0 0.0 0.0
|  8> *
|  9> 
| 10> %pal
| 11> nprocs 24
| 12> end
| 13> 
| 14> 
| 15>                          ****END OF INPUT****
================================================================================

                       ****************************
                       * Single Point Calculation *
                       ****************************

---------------------------------
CARTESIAN COORDINATES (ANGSTROEM)
---------------------------------
  Ni     0.000000    0.000000    0.000000

----------------------------
CARTESIAN COORDINATES (A.U.)
----------------------------
  NO LB      ZA    FRAG     MASS         X           Y           Z
   0 Ni   28.0000    0    58.700    0.000000    0.000000    0.000000

--------------------------------
INTERNAL COORDINATES (ANGSTROEM)
--------------------------------
 Ni     0   0   0     0.000000000000     0.00000000     0.00000000

---------------------------
INTERNAL COORDINATES (A.U.)
---------------------------
 Ni     0   0   0     0.000000000000     0.00000000     0.00000000

---------------------
BASIS SET INFORMATION
---------------------
There are 1 groups of distinct atoms

 Group   1 Type Ni  : 116s77p23d3f2g contracted to 8s7p5d3f2g pattern {19191919191911/151515151511/77711/111/11}

Atom   0Ni   basis set group =>   1
---------------------------------
AUXILIARY/J BASIS SET INFORMATION
---------------------------------
There are 1 groups of distinct atoms

 Group   1 Type Ni  : 19s5p5d3f3g contracted to 8s5p5d2f3g pattern {121111111/11111/11111/21/111}

Atom   0Ni   basis set group =>   1


           ************************************************************
           *        Program running with 24 parallel MPI-processes    *
           *              working on a common directory               *
           ************************************************************
------------------------------------------------------------------------------
                           ORCA GTO INTEGRAL CALCULATION
                           -- RI-GTO INTEGRALS CHOSEN --
------------------------------------------------------------------------------

                         BASIS SET STATISTICS AND STARTUP INFO

Gaussian basis set:
 # of primitive gaussian shells          ...  221
 # of primitive gaussian functions       ...  501
 # of contracted shells                  ...   25
 # of contracted basis functions         ...   93
 Highest angular momentum                ...    4
 Maximum contraction depth               ...   19
Auxiliary gaussian basis set:
 # of primitive gaussian shells          ...   35
 # of primitive gaussian functions       ...  107
 # of contracted shells                  ...   23
 # of contracted aux-basis functions     ...   89
 Highest angular momentum                ...    4
 Maximum contraction depth               ...   12
Ratio of auxiliary to basis functions    ...  0.96
Integral package used                  ... LIBINT
 One Electron integrals                  ... done
 Ordering auxiliary basis shells         ... done
 Integral threshhold             Thresh  ...  1.000e-10
 Primitive cut-off               TCut    ...  1.000e-11
 Pre-screening matrix                    ... done
 Shell pair data                         ... 
 Ordering of the shell pairs             ... done (   0.000 sec) 325 of 325 pairs
 Determination of significant pairs      ... done (   0.000 sec)
 Creation of shell pair data             ... done (   0.001 sec)
 Storage of shell pair data              ... done (   0.096 sec)
 Shell pair data done in (   0.097 sec)
 Computing two index integrals           ... done
 Cholesky decomposition of the V-matrix  ... done


Timings:
 Total evaluation time                   ...   2.655 sec (  0.044 min)
 One electron matrix time                ...   0.036 sec (  0.001 min) =  1.4%
 Schwartz matrix evaluation time         ...   2.492 sec (  0.042 min) = 93.9%
 Two index repulsion integral time       ...   0.001 sec (  0.000 min) =  0.1%
 Cholesky decomposition of V             ...   0.001 sec (  0.000 min) =  0.0%
 Three index repulsion integral time     ...   0.000 sec (  0.000 min) =  0.0%



           ************************************************************
           *        Program running with 24 parallel MPI-processes    *
           *              working on a common directory               *
           ************************************************************
-------------------------------------------------------------------------------
                                 ORCA SCF
-------------------------------------------------------------------------------

------------
SCF SETTINGS
------------
Hamiltonian:
 Density Functional     Method          .... DFT(GTOs)
 Exchange Functional    Exchange        .... TPSS
 Correlation Functional Correlation     .... TPSS
 LDA part of GGA corr.  LDAOpt          .... PW91-LDA
 Gradients option       PostSCFGGA      .... off
   Density functional embedding theory  .... OFF
   NL short-range parameter             ....  5.000000
 RI-approximation to the Coulomb term is turned on
   Number of auxiliary basis functions  .... 89


General Settings:
 Integral files         IntName         .... 68_Ni
 Hartree-Fock type      HFTyp           .... UHF
 Total Charge           Charge          ....    0
 Multiplicity           Mult            ....    3
 Number of Electrons    NEL             ....   28
 Basis Dimension        Dim             ....   93
 Nuclear Repulsion      ENuc            ....      0.0000000000 Eh

Convergence Acceleration:
 DIIS                   CNVDIIS         .... on
   Start iteration      DIISMaxIt       ....    12
   Startup error        DIISStart       ....  0.200000
   # of expansion vecs  DIISMaxEq       ....     5
   Bias factor          DIISBfac        ....   1.050
   Max. coefficient     DIISMaxC        ....  10.000
 Newton-Raphson         CNVNR           .... off
 SOSCF                  CNVSOSCF        .... off
 Level Shifting         CNVShift        .... on
   Level shift para.    LevelShift      ....    0.2500
   Turn off err/grad.   ShiftErr        ....    0.0010
 Zerner damping         CNVZerner       .... off
 Static damping         CNVDamp         .... on
   Fraction old density DampFac         ....    0.7000
   Max. Damping (<1)    DampMax         ....    0.9800
   Min. Damping (>=0)   DampMin         ....    0.0000
   Turn off err/grad.   DampErr         ....    0.1000
 Fernandez-Rico         CNVRico         .... off

SCF Procedure:
 Maximum # iterations   MaxIter         ....   125
 SCF integral mode      SCFMode         .... Direct
   Integral package                     .... LIBINT
 Reset frequency        DirectResetFreq ....    20
 Integral Threshold     Thresh          ....  1.000e-10 Eh
 Primitive CutOff       TCut            ....  1.000e-11 Eh

Convergence Tolerance:
 Convergence Check Mode ConvCheckMode   .... Total+1el-Energy
 Convergence forced     ConvForced      .... 0
 Energy Change          TolE            ....  1.000e-06 Eh
 1-El. energy change                    ....  1.000e-03 Eh
 DIIS Error             TolErr          ....  1.000e-06


Diagonalization of the overlap matrix:
Smallest eigenvalue                        ... 8.106e-04
Time for diagonalization                   ...    0.003 sec
Threshold for overlap eigenvalues          ... 1.000e-08
Number of eigenvalues below threshold      ... 0
Time for construction of square roots      ...    0.001 sec
Total time needed                          ...    0.004 sec

-------------------
DFT GRID GENERATION
-------------------

General Integration Accuracy     IntAcc      ...  4.670
Radial Grid Type                 RadialGrid  ... Gauss-Chebyshev
Angular Grid (max. acc.)         AngularGrid ... Lebedev-302
Angular grid pruning method      GridPruning ... 3 (G Style)
Weight generation scheme         WeightScheme... Becke
Basis function cutoff            BFCut       ...    1.0000e-10
Integration weight cutoff        WCut        ...    1.0000e-14
Grids for H and He will be reduced by one unit

# of grid points (after initial pruning)     ...   9664 (   0.0 sec)
# of grid points (after weights+screening)   ...   9664 (   0.0 sec)
Grid point division into batches done        ...    0.1 sec
Reduced shell lists constructed in    0.1 sec

Total number of grid points                  ...     9664
Total number of batches                      ...      152
Average number of points per batch           ...       63
Average number of grid points per atom       ...     9664
Average number of shells per batch           ...    11.38 (45.50%)
Average number of basis functions per batch  ...    27.12 (29.17%)
Average number of large shells per batch     ...     4.62 (40.66%)
Average number of large basis fcns per batch ...    11.62 (42.86%)
Maximum spatial batch extension              ...  22.45, 20.42, 20.42 au
Average spatial batch extension              ...   0.85,  0.81,  0.79 au

Time for grid setup =    0.126 sec

------------------------------
INITIAL GUESS: MODEL POTENTIAL
------------------------------
Loading Hartree-Fock densities                     ... done
Calculating cut-offs                               ... done
Setting up the integral package                    ... done
Initializing the effective Hamiltonian             ... done
Starting the Coulomb interaction                   ... done (   0.0 sec)
Reading the grid                                   ... done
Mapping shells                                     ... done
Starting the XC term evaluation                    ... done (   0.0 sec)
  promolecular density results
     # of electrons  =     28.000038162
     EX              =    -61.494585536
     EC              =     -1.267234068
     EX+EC           =    -62.761819604
Transforming the Hamiltonian                       ... done (   0.0 sec)
Diagonalizing the Hamiltonian                      ... done (   0.0 sec)
Back transforming the eigenvectors                 ... done (   0.0 sec)
Now organizing SCF variables                       ... done
                      ------------------
                      INITIAL GUESS DONE (   0.3 sec)
                      ------------------
--------------
SCF ITERATIONS
--------------
ITER       Energy         Delta-E        Max-DP      RMS-DP      [F,P]     Damp
               ***  Starting incremental Fock matrix formation  ***
  0  -1508.2835038000   0.000000000000 0.03309427  0.00108582  0.3033089 0.7000
  1  -1508.3110478061  -0.027544006082 0.01127524  0.00036785  0.0393707 0.7000
                               ***Turning on DIIS***
  2  -1508.3202785536  -0.009230747512 0.02451271  0.00067812  0.0557800 0.0000
  3  -1508.3443857687  -0.024107215138 0.00413385  0.00013174  0.1031847 0.7000
  4  -1508.3464176584  -0.002031889696 0.01433188  0.00034930  0.0776455 0.0000
  5  -1508.3497444513  -0.003326792855 0.00214531  0.00006883  0.0067869 0.0000
  6  -1508.3497897843  -0.000045332995 0.00170430  0.00002225  0.0013608 0.0000
  7  -1508.3497937235  -0.000003939241 0.04438124  0.00046905  0.0004832 0.0000
  8  -1508.3498655115  -0.000071787982 0.00010295  0.00000204  0.0051093 0.0000
  9  -1508.3498626262   0.000002885306 0.00007604  0.00000078  0.0054015 0.0000
                 **** Energy Check signals convergence ****

               *****************************************************
               *                     SUCCESS                       *
               *           SCF CONVERGED AFTER  10 CYCLES          *
               *****************************************************


----------------
TOTAL SCF ENERGY
----------------

Total Energy       :        -1508.34986205 Eh          -41044.28640 eV

Components:
Nuclear Repulsion  :            0.00000000 Eh               0.00000 eV
Electronic Energy  :        -1508.34986205 Eh          -41044.28640 eV
One Electron Energy:        -2097.07468633 Eh          -57064.30331 eV
Two Electron Energy:          588.72482428 Eh           16020.01691 eV

Virial components:
Potential Energy   :        -3014.56357113 Eh          -82030.44512 eV
Kinetic Energy     :         1506.21370907 Eh           40986.15872 eV
Virial Ratio       :            2.00141823


DFT components:
N(Alpha)           :       15.000004443814 electrons
N(Beta)            :       13.000004611970 electrons
N(Total)           :       28.000009055784 electrons
E(X)               :      -61.951220230298 Eh       
E(C)               :       -1.272101258216 Eh       
E(XC)              :      -63.223321488514 Eh       
DFET-embed. en.    :        0.000000000000 Eh       

---------------
SCF CONVERGENCE
---------------

  Last Energy change         ...    5.7201e-07  Tolerance :   1.0000e-06
  Last MAX-Density change    ...    7.9584e-05  Tolerance :   1.0000e-05
  Last RMS-Density change    ...    6.8269e-07  Tolerance :   1.0000e-06
  Last DIIS Error            ...    5.4147e-03  Tolerance :   1.0000e-06

             **** THE GBW FILE WAS UPDATED (68_Ni.gbw) ****
             **** DENSITY FILE WAS UPDATED (68_Ni.scfp) ****
             **** ENERGY FILE WAS UPDATED (68_Ni.en.tmp) ****
----------------------
UHF SPIN CONTAMINATION
----------------------

Warning: in a DFT calculation there is little theoretical justification to 
         calculate <S**2> as in Hartree-Fock theory. We will do it anyways
         but you should keep in mind that the values have only limited relevance

Expectation value of <S**2>     :     2.001072
Ideal value S*(S+1) for S=1.0   :     2.000000
Deviation                       :     0.001072

             **** THE GBW FILE WAS UPDATED (68_Ni.gbw) ****
             **** DENSITY FILE WAS UPDATED (68_Ni.scfp) ****
----------------
ORBITAL ENERGIES
----------------
                 SPIN UP ORBITALS
  NO   OCC          E(Eh)            E(eV) 
   0   1.0000    -298.896817     -8133.3959 
   1   1.0000     -35.299626      -960.5517 
   2   1.0000     -30.758399      -836.9786 
   3   1.0000     -30.730643      -836.2233 
   4   1.0000     -30.721330      -835.9699 
   5   1.0000      -3.838341      -104.4466 
   6   1.0000      -2.491171       -67.7882 
   7   1.0000      -2.434730       -66.2524 
   8   1.0000      -2.415827       -65.7380 
   9   1.0000      -0.238323        -6.4851 
  10   1.0000      -0.191008        -5.1976 
  11   1.0000      -0.184743        -5.0271 
  12   1.0000      -0.174420        -4.7462 
  13   1.0000      -0.166271        -4.5245 
  14   1.0000      -0.165681        -4.5084 
  15   0.0000      -0.036823        -1.0020 
  16   0.0000      -0.032434        -0.8826 
  17   0.0000      -0.030850        -0.8395 
  18   0.0000       0.004486         0.1221 
  19   0.0000       0.031987         0.8704 
  20   0.0000       0.033877         0.9218 
  21   0.0000       0.034591         0.9413 
  22   0.0000       0.071760         1.9527 
  23   0.0000       0.072277         1.9668 
  24   0.0000       0.072732         1.9792 
  25   0.0000       0.074034         2.0146 
  26   0.0000       0.074066         2.0155 
  27   0.0000       0.120865         3.2889 
  28   0.0000       0.191998         5.2245 
  29   0.0000       0.197487         5.3739 
  30   0.0000       0.199479         5.4281 
  31   0.0000       0.333894         9.0857 
  32   0.0000       0.337449         9.1825 
  33   0.0000       0.339244         9.2313 
  34   0.0000       0.344310         9.3691 
  35   0.0000       0.344462         9.3733 
  36   0.0000       0.576324        15.6826 
  37   0.0000       0.865673        23.5562 
  38   0.0000       0.881346        23.9826 
  39   0.0000       0.886735        24.1293 
  40   0.0000       1.222226        33.2585 
  41   0.0000       1.223370        33.2896 
  42   0.0000       1.226414        33.3724 
  43   0.0000       1.231842        33.5201 
  44   0.0000       1.232283        33.5321 
  45   0.0000       1.238986        33.7145 
  46   0.0000       1.239007        33.7151 
  47   0.0000       1.363485        37.1023 
  48   0.0000       1.381961        37.6051 
  49   0.0000       1.385943        37.7134 
  50   0.0000       1.397147        38.0183 
  51   0.0000       1.397496        38.0278 
  52   0.0000       3.441089        93.6368 
  53   0.0000       3.773258       102.6756 
  54   0.0000       3.791918       103.1833 
  55   0.0000       3.797439       103.3336 
  56   0.0000       3.821634       103.9919 
  57   0.0000       3.823040       104.0302 
  58   0.0000       3.830756       104.2402 
  59   0.0000       3.830957       104.2456 
  60   0.0000       3.833383       104.3116 
  61   0.0000       3.859533       105.0232 
  62   0.0000       3.872490       105.3758 
  63   0.0000       4.984432       135.6333 
  64   0.0000       4.987757       135.7238 
  65   0.0000       4.993000       135.8664 
  66   0.0000       5.003945       136.1643 
  67   0.0000       5.004562       136.1810 
  68   0.0000       5.019405       136.5850 
  69   0.0000       5.019431       136.5857 
  70   0.0000       5.023912       136.7076 
  71   0.0000       5.023915       136.7077 
  72   0.0000       5.529886       150.4759 
  73   0.0000       5.568740       151.5331 
  74   0.0000       5.574851       151.6994 
  75   0.0000       5.592055       152.1676 
  76   0.0000       5.592578       152.1818 
  77   0.0000      12.270647       333.9013 
  78   0.0000      12.289182       334.4056 
  79   0.0000      12.298296       334.6536 
  80   0.0000      12.342862       335.8663 
  81   0.0000      12.343192       335.8753 
  82   0.0000      12.351416       336.0991 
  83   0.0000      12.351450       336.1000 
  84   0.0000      13.932805       379.1309 
  85   0.0000      13.939999       379.3266 
  86   0.0000      13.948587       379.5603 
  87   0.0000      13.971513       380.1842 
  88   0.0000      13.972244       380.2041 
  89   0.0000      14.000752       380.9798 
  90   0.0000      14.000764       380.9802 
  91   0.0000      14.002867       381.0374 
  92   0.0000      14.002869       381.0374 

                 SPIN DOWN ORBITALS
  NO   OCC          E(Eh)            E(eV) 
   0   1.0000    -298.895621     -8133.3633 
   1   1.0000     -35.282617      -960.0888 
   2   1.0000     -30.734798      -836.3364 
   3   1.0000     -30.719563      -835.9218 
   4   1.0000     -30.714133      -835.7741 
   5   1.0000      -3.795818      -103.2894 
   6   1.0000      -2.416602       -65.7591 
   7   1.0000      -2.401993       -65.3616 
   8   1.0000      -2.395244       -65.1779 
   9   1.0000      -0.175448        -4.7742 
  10   1.0000      -0.163936        -4.4609 
  11   1.0000      -0.132293        -3.5999 
  12   1.0000      -0.131417        -3.5760 
  13   0.0000      -0.127148        -3.4599 
  14   0.0000      -0.117936        -3.2092 
  15   0.0000      -0.006533        -0.1778 
  16   0.0000      -0.006310        -0.1717 
  17   0.0000      -0.006262        -0.1704 
  18   0.0000       0.019924         0.5422 
  19   0.0000       0.049695         1.3523 
  20   0.0000       0.049983         1.3601 
  21   0.0000       0.050147         1.3646 
  22   0.0000       0.090942         2.4747 
  23   0.0000       0.091231         2.4825 
  24   0.0000       0.091301         2.4844 
  25   0.0000       0.091316         2.4848 
  26   0.0000       0.096048         2.6136 
  27   0.0000       0.140860         3.8330 
  28   0.0000       0.228938         6.2297 
  29   0.0000       0.230335         6.2677 
  30   0.0000       0.230399         6.2695 
  31   0.0000       0.365444         9.9442 
  32   0.0000       0.367515        10.0006 
  33   0.0000       0.374461        10.1896 
  34   0.0000       0.374535        10.1916 
  35   0.0000       0.374609        10.1936 
  36   0.0000       0.603141        16.4123 
  37   0.0000       0.907874        24.7045 
  38   0.0000       0.910537        24.7770 
  39   0.0000       0.911558        24.8047 
  40   0.0000       1.271550        34.6006 
  41   0.0000       1.271762        34.6064 
  42   0.0000       1.279626        34.8204 
  43   0.0000       1.281644        34.8753 
  44   0.0000       1.282053        34.8864 
  45   0.0000       1.288783        35.0696 
  46   0.0000       1.288832        35.0709 
  47   0.0000       1.409370        38.3509 
  48   0.0000       1.415313        38.5126 
  49   0.0000       1.432514        38.9807 
  50   0.0000       1.432930        38.9920 
  51   0.0000       1.441130        39.2151 
  52   0.0000       3.480259        94.7027 
  53   0.0000       3.829475       104.2053 
  54   0.0000       3.829606       104.2089 
  55   0.0000       3.835209       104.3613 
  56   0.0000       3.841769       104.5398 
  57   0.0000       3.855233       104.9062 
  58   0.0000       3.858038       104.9826 
  59   0.0000       3.858107       104.9844 
  60   0.0000       3.880882       105.6042 
  61   0.0000       3.891746       105.8998 
  62   0.0000       3.895900       106.0128 
  63   0.0000       5.026341       136.7737 
  64   0.0000       5.026365       136.7743 
  65   0.0000       5.027476       136.8046 
  66   0.0000       5.027704       136.8108 
  67   0.0000       5.037359       137.0735 
  68   0.0000       5.043000       137.2270 
  69   0.0000       5.049194       137.3955 
  70   0.0000       5.050800       137.4392 
  71   0.0000       5.050824       137.4399 
  72   0.0000       5.588647       152.0748 
  73   0.0000       5.596687       152.2936 
  74   0.0000       5.619625       152.9178 
  75   0.0000       5.619829       152.9233 
  76   0.0000       5.621019       152.9557 
  77   0.0000      12.356478       336.2369 
  78   0.0000      12.356646       336.2414 
  79   0.0000      12.364355       336.4512 
  80   0.0000      12.372756       336.6798 
  81   0.0000      12.383688       336.9773 
  82   0.0000      12.393177       337.2355 
  83   0.0000      12.393204       337.2362 
  84   0.0000      14.008595       381.1932 
  85   0.0000      14.009297       381.2124 
  86   0.0000      14.012566       381.3013 
  87   0.0000      14.014286       381.3481 
  88   0.0000      14.016788       381.4162 
  89   0.0000      14.021603       381.5472 
  90   0.0000      14.021940       381.5564 
  91   0.0000      14.037526       381.9805 
  92   0.0000      14.037529       381.9806 

                    ********************************
                    * MULLIKEN POPULATION ANALYSIS *
                    ********************************

--------------------------------------------
MULLIKEN ATOMIC CHARGES AND SPIN POPULATIONS
--------------------------------------------
   0 Ni:   -0.000000    2.000000
Sum of atomic charges         :   -0.0000000
Sum of atomic spin populations:    2.0000000

-----------------------------------------------------
MULLIKEN REDUCED ORBITAL CHARGES AND SPIN POPULATIONS
-----------------------------------------------------
CHARGE
  0 Nis       :     7.005054  s :     7.005054
      pz      :     3.999920  p :    11.999876
      px      :     3.999978
      py      :     3.999978
      dz2     :     1.039950  d :     8.994855
      dxz     :     1.983977
      dyz     :     1.983221
      dx2y2   :     1.987767
      dxy     :     1.999941
      f0      :     0.000075  f :     0.000124
      f+1     :     0.000022
      f-1     :     0.000022
      f+2     :     0.000002
      f-2     :     0.000001
      f+3     :     0.000002
      f-3     :     0.000002
      g0      :     0.000034  g :     0.000091
      g+1     :     0.000019
      g-1     :     0.000013
      g+2     :     0.000011
      g-2     :     0.000010
      g+3     :     0.000001
      g-3     :     0.000001
      g+4     :     0.000001
      g-4     :     0.000001

SPIN
  0 Nis       :     0.994501  s :     0.994501
      pz      :    -0.000054  p :    -0.000038
      px      :     0.000002
      py      :     0.000014
      dz2     :     0.960397  d :     1.005461
      dxz     :     0.015996
      dyz     :     0.016759
      dx2y2   :     0.012253
      dxy     :     0.000055
      f0      :     0.000051  f :     0.000038
      f+1     :    -0.000001
      f-1     :    -0.000013
      f+2     :    -0.000001
      f-2     :    -0.000000
      f+3     :     0.000001
      f-3     :     0.000002
      g0      :     0.000024  g :     0.000039
      g+1     :     0.000017
      g-1     :     0.000011
      g+2     :    -0.000007
      g-2     :    -0.000007
      g+3     :    -0.000000
      g-3     :    -0.000000
      g+4     :     0.000001
      g-4     :     0.000001


                     *******************************
                     * LOEWDIN POPULATION ANALYSIS *
                     *******************************

-------------------------------------------
LOEWDIN ATOMIC CHARGES AND SPIN POPULATIONS
-------------------------------------------
   0 Ni:    0.000000    2.000000

----------------------------------------------------
LOEWDIN REDUCED ORBITAL CHARGES AND SPIN POPULATIONS
----------------------------------------------------
CHARGE
  0 Nis       :     7.005054  s :     7.005054
      pz      :     3.999920  p :    11.999876
      px      :     3.999978
      py      :     3.999978
      dz2     :     1.039950  d :     8.994855
      dxz     :     1.983977
      dyz     :     1.983221
      dx2y2   :     1.987767
      dxy     :     1.999941
      f0      :     0.000075  f :     0.000124
      f+1     :     0.000022
      f-1     :     0.000022
      f+2     :     0.000002
      f-2     :     0.000001
      f+3     :     0.000002
      f-3     :     0.000002
      g0      :     0.000034  g :     0.000091
      g+1     :     0.000019
      g-1     :     0.000013
      g+2     :     0.000011
      g-2     :     0.000010
      g+3     :     0.000001
      g-3     :     0.000001
      g+4     :     0.000001
      g-4     :     0.000001

SPIN
  0 Nis       :     0.994501  s :     0.994501
      pz      :    -0.000054  p :    -0.000038
      px      :     0.000002
      py      :     0.000014
      dz2     :     0.960397  d :     1.005461
      dxz     :     0.015996
      dyz     :     0.016759
      dx2y2   :     0.012253
      dxy     :     0.000055
      f0      :     0.000051  f :     0.000038
      f+1     :    -0.000001
      f-1     :    -0.000013
      f+2     :    -0.000001
      f-2     :    -0.000000
      f+3     :     0.000001
      f-3     :     0.000002
      g0      :     0.000024  g :     0.000039
      g+1     :     0.000017
      g-1     :     0.000011
      g+2     :    -0.000007
      g-2     :    -0.000007
      g+3     :    -0.000000
      g-3     :    -0.000000
      g+4     :     0.000001
      g-4     :     0.000001


                      *****************************
                      * MAYER POPULATION ANALYSIS *
                      *****************************

  NA   - Mulliken gross atomic population
  ZA   - Total nuclear charge
  QA   - Mulliken gross atomic charge
  VA   - Mayer's total valence
  BVA  - Mayer's bonded valence
  FA   - Mayer's free valence

  ATOM       NA         ZA         QA         VA         BVA        FA
  0 Ni    28.0000    28.0000     0.0000     2.0021     0.0000     2.0021

  Mayer bond orders larger than 0.100000


-------
TIMINGS
-------

Total SCF time: 0 days 0 hours 0 min 2 sec 

Total time                  ....       2.061 sec
Sum of individual times     ....       1.942 sec  ( 94.2%)

Fock matrix formation       ....       1.633 sec  ( 79.2%)
  Split-RI-J                ....       1.184 sec  ( 72.5% of F)
  XC integration            ....       0.402 sec  ( 24.6% of F)
    Basis function eval.    ....       0.037 sec  (  9.3% of XC)
    Density eval.           ....       0.027 sec  (  6.6% of XC)
    XC-Functional eval.     ....       0.011 sec  (  2.8% of XC)
    XC-Potential eval.      ....       0.067 sec  ( 16.7% of XC)
Diagonalization             ....       0.026 sec  (  1.3%)
Density matrix formation    ....       0.005 sec  (  0.2%)
Population analysis         ....       0.005 sec  (  0.3%)
Initial guess               ....       0.138 sec  (  6.7%)
Orbital Transformation      ....       0.000 sec  (  0.0%)
Orbital Orthonormalization  ....       0.000 sec  (  0.0%)
DIIS solution               ....       0.010 sec  (  0.5%)
Grid generation             ....       0.126 sec  (  6.1%)


-------------------------------------------------------------------------------
                          DFT DISPERSION CORRECTION                            
                                                                               
                              DFTD3 V3.1  Rev 1                                
                          USING Becke-Johnson damping                          
-------------------------------------------------------------------------------
The TPSS functional is recognized
Active option DFTDOPT                   ...         4   

molecular C6(AA) [au] = 574.742232 


            DFT-D V3
 parameters
 s6 scaling factor         :     1.0000 
 a1 scaling factor         :     0.4535 
 s8 scaling factor         :     1.9435 
 a2 scaling factor         :     4.4752 
 ad hoc parameters k1-k3   :    16.0000     1.3333    -4.0000 

 Edisp/kcal,au: -0.000000000000  -0.000000000000 
 E6   /kcal   :  -0.000000000 
 E8   /kcal   :  -0.000000000 
 % E8         :          -nan 

-------------------------   ----------------
Dispersion correction            0.000000000
-------------------------   ----------------


-------------------------   --------------------
FINAL SINGLE POINT ENERGY     -1508.349862054197
-------------------------   --------------------


                            ***************************************
                            *     ORCA property calculations      *
                            ***************************************

                                    ---------------------
                                    Active property flags
                                    ---------------------
   (+) Dipole Moment


------------------------------------------------------------------------------
                       ORCA ELECTRIC PROPERTIES CALCULATION
------------------------------------------------------------------------------

Dipole Moment Calculation                       ... on
Quadrupole Moment Calculation                   ... off
Polarizability Calculation                      ... off
GBWName                                         ... 68_Ni.gbw
Electron density file                           ... 68_Ni.scfp
The origin for moment calculation is the CENTER OF MASS  = ( 0.000000,  0.000000  0.000000)

-------------
DIPOLE MOMENT
-------------
                                X             Y             Z
Electronic contribution:      0.00000       0.00000       0.00000
Nuclear contribution   :      0.00000       0.00000       0.00000
                        -----------------------------------------
Total Dipole Moment    :      0.00000       0.00000       0.00000
                        -----------------------------------------
Magnitude (a.u.)       :      0.00000
Magnitude (Debye)      :      0.00000



--------------------
Rotational spectrum 
--------------------
 
Rotational constants in cm-1:     0.000000     0.000000     0.000000 
Rotational constants in MHz :     0.000000     0.000000     0.000000 

 Dipole components along the rotational axes: 
x,y,z [a.u.] :     0.000000     0.000000     0.000000 
x,y,z [Debye]:     0.000000     0.000000     0.000000 

 

Timings for individual modules:

Sum of individual times         ...        5.560 sec (=   0.093 min)
GTO integral calculation        ...        3.151 sec (=   0.053 min)  56.7 %
SCF iterations                  ...        2.410 sec (=   0.040 min)  43.3 %
                             ****ORCA TERMINATED NORMALLY****
TOTAL RUN TIME: 0 days 0 hours 0 minutes 6 seconds 145 msec
