
                                 *****************
                                 * O   R   C   A *
                                 *****************

           --- An Ab Initio, DFT and Semiempirical electronic structure package ---

                  #######################################################
                  #                        -***-                        #
                  #          Department of theory and spectroscopy      #
                  #               Directorship: Frank Neese             #
                  #        Max Planck Institute fuer Kohlenforschung    #
                  #                Kaiser Wilhelm Platz 1               #
                  #                 D-45470 Muelheim/Ruhr               #
                  #                      Germany                        #
                  #                                                     #
                  #                  All rights reserved                #
                  #                        -***-                        #
                  #######################################################


                         Program Version 4.2.0 -  RELEASE  -


 With contributions from (in alphabetic order):
   Daniel Aravena         : Magnetic Suceptibility
   Michael Atanasov       : Ab Initio Ligand Field Theory (pilot matlab implementation)
   Alexander A. Auer      : GIAO ZORA, VPT2
   Ute Becker             : Parallelization
   Giovanni Bistoni       : ED, misc. LED, open-shell LED, HFLED
   Martin Brehm           : Molecular dynamics
   Dmytro Bykov           : SCF Hessian
   Vijay G. Chilkuri      : MRCI spin determinant printing, contributions to CSF-ICE
   Dipayan Datta          : RHF DLPNO-CCSD density
   Achintya Kumar Dutta   : EOM-CC, STEOM-CC
   Dmitry Ganyushin       : Spin-Orbit,Spin-Spin,Magnetic field MRCI
   Miquel Garcia          : C-PCM Hessian, Gaussian charge scheme
   Yang Guo               : DLPNO-NEVPT2, CIM, IAO-localization
   Andreas Hansen         : Spin unrestricted coupled pair/coupled cluster methods
   Benjamin Helmich-Paris : CASSCF linear response (MC-RPA)
   Lee Huntington         : MR-EOM, pCC
   Robert Izsak           : Overlap fitted RIJCOSX, COSX-SCS-MP3, EOM
   Christian Kollmar      : KDIIS, OOCD, Brueckner-CCSD(T), CCSD density
   Simone Kossmann        : Meta GGA functionals, TD-DFT gradient, OOMP2, MP2 Hessian
   Martin Krupicka        : AUTO-CI
   Lucas Lang             : DCDCAS
   Dagmar Lenk            : GEPOL surface, SMD
   Dimitrios Liakos       : Extrapolation schemes; Compound Job, initial MDCI parallelization
   Dimitrios Manganas     : Further ROCIS development; embedding schemes
   Dimitrios Pantazis     : SARC Basis sets
   Taras Petrenko         : DFT Hessian,TD-DFT gradient, ASA, ECA, R-Raman, ABS, FL, XAS/XES, NRVS
   Peter Pinski           : DLPNO-MP2, DLPNO-MP2 Gradient
   Christoph Reimann      : Effective Core Potentials
   Marius Retegan         : Local ZFS, SOC
   Christoph Riplinger    : Optimizer, TS searches, QM/MM, DLPNO-CCSD(T), (RO)-DLPNO pert. Triples
   Tobias Risthaus        : Range-separated hybrids, TD-DFT gradient, RPA, STAB
   Michael Roemelt        : Original ROCIS implementation
   Masaaki Saitow         : Open-shell DLPNO-CCSD energy and density
   Barbara Sandhoefer     : DKH picture change effects
   Avijit Sen             : IP-ROCIS
   Kantharuban Sivalingam : CASSCF convergence, NEVPT2, FIC-MRCI
   Bernardo de Souza      : ESD, SOC TD-DFT
   Georgi Stoychev        : AutoAux, RI-MP2 NMR
   Willem Van den Heuvel  : Paramagnetic NMR
   Boris Wezisla          : Elementary symmetry handling
   Frank Wennmohs         : Technical directorship


 We gratefully acknowledge several colleagues who have allowed us to
 interface, adapt or use parts of their codes:
   Stefan Grimme, W. Hujo, H. Kruse,             : VdW corrections, initial TS optimization,
                  C. Bannwarth                     DFT functionals, gCP, sTDA/sTD-DF
   Ed Valeev, F. Pavosevic, A. Kumar             : LibInt (2-el integral package), F12 methods
   Garnet Chan, S. Sharma, J. Yang, R. Olivares  : DMRG
   Ulf Ekstrom                                   : XCFun DFT Library
   Mihaly Kallay                                 : mrcc  (arbitrary order and MRCC methods)
   Andreas Klamt, Michael Diedenhofen            : otool_cosmo (COSMO solvation model)
   Jiri Pittner, Ondrej Demel                    : Mk-CCSD
   Frank Weinhold                                : gennbo (NPA and NBO analysis)
   Christopher J. Cramer and Donald G. Truhlar   : smd solvation model
   Lars Goerigk                                  : TD-DFT with DH, B97 family of functionals
   V. Asgeirsson, H. Jonsson                     : NEB implementation
   FAccTs GmbH                                   : IRC, NEB, NEB-TS, Multilevel, MM, QM/MM, CI optimization
   S Lehtola, MJT Oliveira, MAL Marques          : LibXC Library


 Your calculation uses the libint2 library for the computation of 2-el integrals
 For citations please refer to: http://libint.valeyev.net

 Your ORCA version has been built with support for libXC version: 4.2.3
 For citations please refer to: https://tddft.org/programs/libxc/

 This ORCA versions uses:
   CBLAS   interface :  Fast vector & matrix operations
   LAPACKE interface :  Fast linear algebra routines
   SCALAPACK package :  Parallel linear algebra routines


Your calculation utilizes the atom-pairwise dispersion correction
with the Becke-Johnson damping scheme (D3BJ)
Cite in your paper:
S.Grimme, S.Ehrlich, L.Goerigk, J Comput Chem, (2011), 32, 1456–1465 
S.Grimme, J.Antony, S.Ehrlich and H.Krieg, J.Chem.Phys., 132, (2010), 154104 
   

----- Orbital basis set information -----
Your calculation utilizes the basis: aug-cc-pVTZ 
    H, B-Ne : Obtained from the ccRepo (grant-hill.group.shef.ac.uk/ccrepo) Feb. 2017
              R. A. Kendall, T. H. Dunning, Jr., R. J. Harrison, J. Chem. Phys. 96, 6796 (1992)
         He : Obtained from the ccRepo (grant-hill.group.shef.ac.uk/ccrepo) Feb. 2017
              D. E. Woon, T. H. Dunning, Jr., J. Chem. Phys. 100, 2975 (1994)
  Li-Be, Na : Obtained from the ccRepo (grant-hill.group.shef.ac.uk/ccrepo) Feb. 2017
              B. P. Prascher, D. E. Woon, K. A. Peterson, T. H. Dunning, Jr., A. K. Wilson, Theor. Chem. Acc. 128, 69 (2011)
         Mg : Obtained from the Peterson Research Group Website (tyr0.chem.wsu.edu/~kipeters) Feb. 2017
              B. P. Prascher, D. E. Woon, K. A. Peterson, T. H. Dunning, Jr., A. K. Wilson, Theor. Chem. Acc. 128, 69 (2011)
      Al-Ar : Obtained from the ccRepo (grant-hill.group.shef.ac.uk/ccrepo) Feb. 2017
              D. E. Woon, T. H. Dunning, Jr., J. Chem. Phys. 98, 1358 (1993)
      Sc-Zn : Obtained from the ccRepo (grant-hill.group.shef.ac.uk/ccrepo) Feb. 2017
              N. B. Balabanov, K. A. Peterson, J. Chem. Phys. 123, 064107 (2005)
              N. B. Balabanov, K. A. Peterson, J. Chem. Phys. 125, 074110 (2006)
      Ga-Kr : Obtained from the ccRepo (grant-hill.group.shef.ac.uk/ccrepo) Feb. 2017
              A. K. Wilson, D. E. Woon, K. A. Peterson, T. H. Dunning, Jr., J. Chem. Phys. 110, 7667 (1999)
     Ag, Au : Obtained from the Peterson Research Group Website (tyr0.chem.wsu.edu/~kipeters) Feb. 2017
              K. A. Peterson, C. Puzzarini, Theor. Chem. Acc. 114, 283 (2005)

----- AuxJ basis set information -----
Your calculation utilizes the auxiliary basis: def2/J
   F. Weigend, Phys. Chem. Chem. Phys. 8, 1057 (2006).

================================================================================
                                        WARNINGS
                       Please study these warnings very carefully!
================================================================================


INFO   : the flag for use of LIBINT has been found!

================================================================================
                                       INPUT FILE
================================================================================
NAME = 70_Zn.in
|  1> #
|  2> # 70_Zn tpss/aug-cc-pvtz
|  3> #
|  4> ! tpss d3bj aug-cc-pvtz def2/j grid4 nofinalgrid
|  5> 
|  6> *xyz 0 1
|  7> Zn 0.0 0.0 0.0
|  8> *
|  9> 
| 10> %pal
| 11> nprocs 24
| 12> end
| 13> 
| 14> 
| 15>                          ****END OF INPUT****
================================================================================

                       ****************************
                       * Single Point Calculation *
                       ****************************

---------------------------------
CARTESIAN COORDINATES (ANGSTROEM)
---------------------------------
  Zn     0.000000    0.000000    0.000000

----------------------------
CARTESIAN COORDINATES (A.U.)
----------------------------
  NO LB      ZA    FRAG     MASS         X           Y           Z
   0 Zn   30.0000    0    65.380    0.000000    0.000000    0.000000

--------------------------------
INTERNAL COORDINATES (ANGSTROEM)
--------------------------------
 Zn     0   0   0     0.000000000000     0.00000000     0.00000000

---------------------------
INTERNAL COORDINATES (A.U.)
---------------------------
 Zn     0   0   0     0.000000000000     0.00000000     0.00000000

---------------------
BASIS SET INFORMATION
---------------------
There are 1 groups of distinct atoms

 Group   1 Type Zn  : 116s77p23d3f2g contracted to 8s7p5d3f2g pattern {19191919191911/151515151511/77711/111/11}

Atom   0Zn   basis set group =>   1
---------------------------------
AUXILIARY/J BASIS SET INFORMATION
---------------------------------
There are 1 groups of distinct atoms

 Group   1 Type Zn  : 19s5p5d3f3g contracted to 8s5p5d2f3g pattern {121111111/11111/11111/21/111}

Atom   0Zn   basis set group =>   1


           ************************************************************
           *        Program running with 24 parallel MPI-processes    *
           *              working on a common directory               *
           ************************************************************
------------------------------------------------------------------------------
                           ORCA GTO INTEGRAL CALCULATION
                           -- RI-GTO INTEGRALS CHOSEN --
------------------------------------------------------------------------------

                         BASIS SET STATISTICS AND STARTUP INFO

Gaussian basis set:
 # of primitive gaussian shells          ...  221
 # of primitive gaussian functions       ...  501
 # of contracted shells                  ...   25
 # of contracted basis functions         ...   93
 Highest angular momentum                ...    4
 Maximum contraction depth               ...   19
Auxiliary gaussian basis set:
 # of primitive gaussian shells          ...   35
 # of primitive gaussian functions       ...  107
 # of contracted shells                  ...   23
 # of contracted aux-basis functions     ...   89
 Highest angular momentum                ...    4
 Maximum contraction depth               ...   12
Ratio of auxiliary to basis functions    ...  0.96
Integral package used                  ... LIBINT
 One Electron integrals                  ... done
 Ordering auxiliary basis shells         ... done
 Integral threshhold             Thresh  ...  1.000e-10
 Primitive cut-off               TCut    ...  1.000e-11
 Pre-screening matrix                    ... done
 Shell pair data                         ... 
 Ordering of the shell pairs             ... done (   0.000 sec) 325 of 325 pairs
 Determination of significant pairs      ... done (   0.000 sec)
 Creation of shell pair data             ... done (   0.001 sec)
 Storage of shell pair data              ... done (   0.146 sec)
 Shell pair data done in (   0.147 sec)
 Computing two index integrals           ... done
 Cholesky decomposition of the V-matrix  ... done


Timings:
 Total evaluation time                   ...   2.650 sec (  0.044 min)
 One electron matrix time                ...   0.025 sec (  0.000 min) =  1.0%
 Schwartz matrix evaluation time         ...   2.438 sec (  0.041 min) = 92.0%
 Two index repulsion integral time       ...   0.001 sec (  0.000 min) =  0.0%
 Cholesky decomposition of V             ...   0.001 sec (  0.000 min) =  0.0%
 Three index repulsion integral time     ...   0.000 sec (  0.000 min) =  0.0%



           ************************************************************
           *        Program running with 24 parallel MPI-processes    *
           *              working on a common directory               *
           ************************************************************
-------------------------------------------------------------------------------
                                 ORCA SCF
-------------------------------------------------------------------------------

------------
SCF SETTINGS
------------
Hamiltonian:
 Density Functional     Method          .... DFT(GTOs)
 Exchange Functional    Exchange        .... TPSS
 Correlation Functional Correlation     .... TPSS
 LDA part of GGA corr.  LDAOpt          .... PW91-LDA
 Gradients option       PostSCFGGA      .... off
   Density functional embedding theory  .... OFF
   NL short-range parameter             ....  5.000000
 RI-approximation to the Coulomb term is turned on
   Number of auxiliary basis functions  .... 89


General Settings:
 Integral files         IntName         .... 70_Zn
 Hartree-Fock type      HFTyp           .... RHF
 Total Charge           Charge          ....    0
 Multiplicity           Mult            ....    1
 Number of Electrons    NEL             ....   30
 Basis Dimension        Dim             ....   93
 Nuclear Repulsion      ENuc            ....      0.0000000000 Eh

Convergence Acceleration:
 DIIS                   CNVDIIS         .... on
   Start iteration      DIISMaxIt       ....    12
   Startup error        DIISStart       ....  0.200000
   # of expansion vecs  DIISMaxEq       ....     5
   Bias factor          DIISBfac        ....   1.050
   Max. coefficient     DIISMaxC        ....  10.000
 Newton-Raphson         CNVNR           .... off
 SOSCF                  CNVSOSCF        .... off
 Level Shifting         CNVShift        .... on
   Level shift para.    LevelShift      ....    0.2500
   Turn off err/grad.   ShiftErr        ....    0.0010
 Zerner damping         CNVZerner       .... off
 Static damping         CNVDamp         .... on
   Fraction old density DampFac         ....    0.7000
   Max. Damping (<1)    DampMax         ....    0.9800
   Min. Damping (>=0)   DampMin         ....    0.0000
   Turn off err/grad.   DampErr         ....    0.1000
 Fernandez-Rico         CNVRico         .... off

SCF Procedure:
 Maximum # iterations   MaxIter         ....   125
 SCF integral mode      SCFMode         .... Direct
   Integral package                     .... LIBINT
 Reset frequency        DirectResetFreq ....    20
 Integral Threshold     Thresh          ....  1.000e-10 Eh
 Primitive CutOff       TCut            ....  1.000e-11 Eh

Convergence Tolerance:
 Convergence Check Mode ConvCheckMode   .... Total+1el-Energy
 Convergence forced     ConvForced      .... 0
 Energy Change          TolE            ....  1.000e-06 Eh
 1-El. energy change                    ....  1.000e-03 Eh
 DIIS Error             TolErr          ....  1.000e-06


Diagonalization of the overlap matrix:
Smallest eigenvalue                        ... 6.540e-04
Time for diagonalization                   ...    0.002 sec
Threshold for overlap eigenvalues          ... 1.000e-08
Number of eigenvalues below threshold      ... 0
Time for construction of square roots      ...    0.002 sec
Total time needed                          ...    0.004 sec

-------------------
DFT GRID GENERATION
-------------------

General Integration Accuracy     IntAcc      ...  4.670
Radial Grid Type                 RadialGrid  ... Gauss-Chebyshev
Angular Grid (max. acc.)         AngularGrid ... Lebedev-302
Angular grid pruning method      GridPruning ... 3 (G Style)
Weight generation scheme         WeightScheme... Becke
Basis function cutoff            BFCut       ...    1.0000e-10
Integration weight cutoff        WCut        ...    1.0000e-14
Grids for H and He will be reduced by one unit

# of grid points (after initial pruning)     ...   9640 (   0.0 sec)
# of grid points (after weights+screening)   ...   9640 (   0.0 sec)
Grid point division into batches done        ...    0.1 sec
Reduced shell lists constructed in    0.1 sec

Total number of grid points                  ...     9640
Total number of batches                      ...      151
Average number of points per batch           ...       63
Average number of grid points per atom       ...     9640
Average number of shells per batch           ...     7.50 (30.00%)
Average number of basis functions per batch  ...    15.25 (16.40%)
Average number of large shells per batch     ...     3.75 (50.00%)
Average number of large basis fcns per batch ...     7.75 (50.82%)
Maximum spatial batch extension              ...  22.45, 20.42, 18.83 au
Average spatial batch extension              ...   0.86,  0.81,  0.78 au

Time for grid setup =    0.124 sec

------------------------------
INITIAL GUESS: MODEL POTENTIAL
------------------------------
Loading Hartree-Fock densities                     ... done
Calculating cut-offs                               ... done
Setting up the integral package                    ... done
Initializing the effective Hamiltonian             ... done
Starting the Coulomb interaction                   ... done (   0.0 sec)
Reading the grid                                   ... done
Mapping shells                                     ... done
Starting the XC term evaluation                    ... done (   0.0 sec)
  promolecular density results
     # of electrons  =     30.000011373
     EX              =    -69.527438408
     EC              =     -1.405541621
     EX+EC           =    -70.932980029
Transforming the Hamiltonian                       ... done (   0.0 sec)
Diagonalizing the Hamiltonian                      ... done (   0.0 sec)
Back transforming the eigenvectors                 ... done (   0.0 sec)
Now organizing SCF variables                       ... done
                      ------------------
                      INITIAL GUESS DONE (   0.2 sec)
                      ------------------
--------------
SCF ITERATIONS
--------------
ITER       Energy         Delta-E        Max-DP      RMS-DP      [F,P]     Damp
               ***  Starting incremental Fock matrix formation  ***
  0  -1779.4219227096   0.000000000000 0.02365045  0.00098811  0.2000228 0.7000
  1  -1779.4337682913  -0.011845581687 0.01207941  0.00046184  0.0435880 0.7000
                               ***Turning on DIIS***
  2  -1779.4372033234  -0.003435032102 0.04302862  0.00129028  0.0313414 0.0000
  3  -1779.4464273848  -0.009224061466 0.01373402  0.00040969  0.0126603 0.0000
  4  -1779.4465795617  -0.000152176834 0.00660756  0.00008666  0.0021985 0.0000
  5  -1779.4465833565  -0.000003794849 0.00278279  0.00003548  0.0019159 0.0000
  6  -1779.4465856058  -0.000002249336 0.00177478  0.00002152  0.0001799 0.0000
                 **** Energy Check signals convergence ****

               *****************************************************
               *                     SUCCESS                       *
               *           SCF CONVERGED AFTER   7 CYCLES          *
               *****************************************************


----------------
TOTAL SCF ENERGY
----------------

Total Energy       :        -1779.44658575 Eh          -48421.20328 eV

Components:
Nuclear Repulsion  :            0.00000000 Eh               0.00000 eV
Electronic Energy  :        -1779.44658575 Eh          -48421.20328 eV
One Electron Energy:        -2482.40741636 Eh          -67549.73996 eV
Two Electron Energy:          702.96083062 Eh           19128.53668 eV

Virial components:
Potential Energy   :        -3556.58866815 Eh          -96779.69785 eV
Kinetic Energy     :         1777.14208240 Eh           48358.49456 eV
Virial Ratio       :            2.00129675


DFT components:
N(Alpha)           :       15.000006989883 electrons
N(Beta)            :       15.000006989883 electrons
N(Total)           :       30.000013979766 electrons
E(X)               :      -69.671871918211 Eh       
E(C)               :       -1.406249577715 Eh       
E(XC)              :      -71.078121495926 Eh       
DFET-embed. en.    :        0.000000000000 Eh       

---------------
SCF CONVERGENCE
---------------

  Last Energy change         ...   -1.3982e-07  Tolerance :   1.0000e-06
  Last MAX-Density change    ...    4.9922e-05  Tolerance :   1.0000e-05
  Last RMS-Density change    ...    9.4861e-07  Tolerance :   1.0000e-06
  Last DIIS Error            ...    2.6586e-05  Tolerance :   1.0000e-06

             **** THE GBW FILE WAS UPDATED (70_Zn.gbw) ****
             **** DENSITY FILE WAS UPDATED (70_Zn.scfp) ****
             **** ENERGY FILE WAS UPDATED (70_Zn.en.tmp) ****
             **** THE GBW FILE WAS UPDATED (70_Zn.gbw) ****
             **** DENSITY FILE WAS UPDATED (70_Zn.scfp) ****
----------------
ORBITAL ENERGIES
----------------

  NO   OCC          E(Eh)            E(eV) 
   0   2.0000    -346.281623     -9422.8020 
   1   2.0000     -41.738402     -1135.7596 
   2   2.0000     -36.730035      -999.4751 
   3   2.0000     -36.730035      -999.4751 
   4   2.0000     -36.730035      -999.4751 
   5   2.0000      -4.645664      -126.4150 
   6   2.0000      -3.052625       -83.0661 
   7   2.0000      -3.052625       -83.0661 
   8   2.0000      -3.052625       -83.0661 
   9   2.0000      -0.386771       -10.5246 
  10   2.0000      -0.386771       -10.5246 
  11   2.0000      -0.386771       -10.5246 
  12   2.0000      -0.386771       -10.5246 
  13   2.0000      -0.386771       -10.5246 
  14   2.0000      -0.213131        -5.7996 
  15   0.0000      -0.038818        -1.0563 
  16   0.0000      -0.038818        -1.0563 
  17   0.0000      -0.038818        -1.0563 
  18   0.0000       0.007005         0.1906 
  19   0.0000       0.036463         0.9922 
  20   0.0000       0.036464         0.9922 
  21   0.0000       0.036465         0.9923 
  22   0.0000       0.128615         3.4998 
  23   0.0000       0.168478         4.5845 
  24   0.0000       0.168478         4.5845 
  25   0.0000       0.168478         4.5845 
  26   0.0000       0.168478         4.5845 
  27   0.0000       0.168478         4.5845 
  28   0.0000       0.207334         5.6418 
  29   0.0000       0.207334         5.6419 
  30   0.0000       0.207335         5.6419 
  31   0.0000       0.659270        17.9397 
  32   0.0000       0.730017        19.8648 
  33   0.0000       0.730017        19.8648 
  34   0.0000       0.730017        19.8648 
  35   0.0000       0.730017        19.8648 
  36   0.0000       0.730017        19.8648 
  37   0.0000       0.942923        25.6582 
  38   0.0000       0.942923        25.6582 
  39   0.0000       0.942923        25.6582 
  40   0.0000       1.625405        44.2295 
  41   0.0000       1.625405        44.2295 
  42   0.0000       1.625405        44.2295 
  43   0.0000       1.625405        44.2295 
  44   0.0000       1.625405        44.2295 
  45   0.0000       1.625405        44.2295 
  46   0.0000       1.625405        44.2295 
  47   0.0000       2.728128        74.2361 
  48   0.0000       2.728128        74.2361 
  49   0.0000       2.728128        74.2361 
  50   0.0000       2.728128        74.2361 
  51   0.0000       2.728128        74.2361 
  52   0.0000       4.149522       112.9142 
  53   0.0000       4.241445       115.4156 
  54   0.0000       4.241445       115.4156 
  55   0.0000       4.241445       115.4156 
  56   0.0000       4.901887       133.3871 
  57   0.0000       4.901887       133.3871 
  58   0.0000       4.901887       133.3871 
  59   0.0000       4.901887       133.3871 
  60   0.0000       4.901887       133.3871 
  61   0.0000       4.901887       133.3871 
  62   0.0000       4.901887       133.3871 
  63   0.0000       7.335829       199.6181 
  64   0.0000       7.335829       199.6181 
  65   0.0000       7.335829       199.6181 
  66   0.0000       7.335829       199.6181 
  67   0.0000       7.335829       199.6181 
  68   0.0000       7.335829       199.6181 
  69   0.0000       7.335829       199.6181 
  70   0.0000       7.335829       199.6181 
  71   0.0000       7.335829       199.6181 
  72   0.0000      10.085763       274.4476 
  73   0.0000      10.085763       274.4476 
  74   0.0000      10.085763       274.4476 
  75   0.0000      10.085763       274.4476 
  76   0.0000      10.085763       274.4476 
  77   0.0000      15.748769       428.5458 
  78   0.0000      15.748769       428.5458 
  79   0.0000      15.748769       428.5458 
  80   0.0000      15.748769       428.5458 
  81   0.0000      15.748769       428.5458 
  82   0.0000      15.748769       428.5458 
  83   0.0000      15.748769       428.5458 
  84   0.0000      19.581503       532.8398 
  85   0.0000      19.581503       532.8398 
  86   0.0000      19.581503       532.8398 
  87   0.0000      19.581503       532.8398 
  88   0.0000      19.581503       532.8398 
  89   0.0000      19.581503       532.8398 
  90   0.0000      19.581503       532.8398 
  91   0.0000      19.581503       532.8398 
  92   0.0000      19.581503       532.8398 

                    ********************************
                    * MULLIKEN POPULATION ANALYSIS *
                    ********************************

-----------------------
MULLIKEN ATOMIC CHARGES
-----------------------
   0 Zn:   -0.000000
Sum of atomic charges:   -0.0000000

--------------------------------
MULLIKEN REDUCED ORBITAL CHARGES
--------------------------------
  0 Zns       :     8.000000  s :     8.000000
      pz      :     4.000000  p :    12.000000
      px      :     4.000000
      py      :     4.000000
      dz2     :     2.000000  d :    10.000000
      dxz     :     2.000000
      dyz     :     2.000000
      dx2y2   :     2.000000
      dxy     :     2.000000
      f0      :     0.000000  f :     0.000000
      f+1     :     0.000000
      f-1     :     0.000000
      f+2     :     0.000000
      f-2     :     0.000000
      f+3     :     0.000000
      f-3     :     0.000000
      g0      :     0.000000  g :     0.000000
      g+1     :     0.000000
      g-1     :     0.000000
      g+2     :     0.000000
      g-2     :     0.000000
      g+3     :     0.000000
      g-3     :     0.000000
      g+4     :     0.000000
      g-4     :     0.000000


                     *******************************
                     * LOEWDIN POPULATION ANALYSIS *
                     *******************************

----------------------
LOEWDIN ATOMIC CHARGES
----------------------
   0 Zn:   -0.000000

-------------------------------
LOEWDIN REDUCED ORBITAL CHARGES
-------------------------------
  0 Zns       :     8.000000  s :     8.000000
      pz      :     4.000000  p :    12.000000
      px      :     4.000000
      py      :     4.000000
      dz2     :     2.000000  d :    10.000000
      dxz     :     2.000000
      dyz     :     2.000000
      dx2y2   :     2.000000
      dxy     :     2.000000
      f0      :     0.000000  f :     0.000000
      f+1     :     0.000000
      f-1     :     0.000000
      f+2     :     0.000000
      f-2     :     0.000000
      f+3     :     0.000000
      f-3     :     0.000000
      g0      :     0.000000  g :     0.000000
      g+1     :     0.000000
      g-1     :     0.000000
      g+2     :     0.000000
      g-2     :     0.000000
      g+3     :     0.000000
      g-3     :     0.000000
      g+4     :     0.000000
      g-4     :     0.000000


                      *****************************
                      * MAYER POPULATION ANALYSIS *
                      *****************************

  NA   - Mulliken gross atomic population
  ZA   - Total nuclear charge
  QA   - Mulliken gross atomic charge
  VA   - Mayer's total valence
  BVA  - Mayer's bonded valence
  FA   - Mayer's free valence

  ATOM       NA         ZA         QA         VA         BVA        FA
  0 Zn    30.0000    30.0000    -0.0000    -0.0000     0.0000    -0.0000

  Mayer bond orders larger than 0.100000


--------------------------
ATOM BASIS FOR ELEMENT Zn
--------------------------
 NewGTO Zn
 S 113
    1    5820021.000000000000         0.000008549209
    2     871523.400000000023         0.000066474167
    3     198335.000000000000         0.000349496550
    4      56176.309999999998         0.001473833476
    5      18325.820000000000         0.005338335347
    6       6614.955000000000         0.017127097156
    7       2579.199000000000         0.048940899023
    8       1068.849000000000         0.121793521997
    9        465.104500000000         0.247659148074
   10        210.413000000000         0.358243458843
   11         97.616290000000         0.279817680286
   12         44.380200000000         0.068574978690
   13         21.423080000000        -0.001311093313
   14         10.308910000000         0.001914002917
   15          4.553645000000        -0.000875922877
   16          2.132821000000         0.000374009975
   17          0.929697000000        -0.000140140040
   18          0.192147000000         0.000047571348
   19          0.087595000000        -0.000036427136
   20    5820021.000000000000         0.000000001268
   21     871523.400000000023         0.000000009862
   22     198335.000000000000         0.000000051882
   23      56176.309999999998         0.000000219016
   24      18325.820000000000         0.000000796466
   25       6614.955000000000         0.000002579281
   26       2579.199000000000         0.000007549033
   27       1068.849000000000         0.000019806745
   28        465.104500000000         0.000045193137
   29        210.413000000000         0.000082634834
   30         97.616290000000         0.000094096832
   31         44.380200000000        -0.000021778258
   32         21.423080000000        -0.000251968130
   33         10.308910000000        -0.000240519056
   34          4.553645000000        -0.000042978599
   35          2.132821000000         0.000001031167
   36          0.929697000000        -0.000001014760
   37    5820021.000000000000         0.000000000056
   38     871523.400000000023         0.000000000437
   39     198335.000000000000         0.000000002296
   40      56176.309999999998         0.000000009703
   41      18325.820000000000         0.000000035253
   42       6614.955000000000         0.000000114490
   43       2579.199000000000         0.000000335366
   44       1068.849000000000         0.000000887964
   45        465.104500000000         0.000002048718
   46        210.413000000000         0.000003881768
   47         97.616290000000         0.000004639694
   48         44.380200000000        -0.000001132798
   49         21.423080000000        -0.000018318228
   50         10.308910000000        -0.000025923529
   51          4.553645000000         0.000009211396
   52          2.132821000000         0.000041097372
   53          0.929697000000         0.000021231239
   54          0.192147000000         0.000000807192
   55    5820021.000000000000        -0.000000000035
   56     871523.400000000023        -0.000000000269
   57     198335.000000000000        -0.000000001412
   58      56176.309999999998        -0.000000005969
   59      18325.820000000000        -0.000000021680
   60       6614.955000000000        -0.000000070457
   61       2579.199000000000        -0.000000206325
   62       1068.849000000000        -0.000000547177
   63        465.104500000000        -0.000001263475
   64        210.413000000000        -0.000002406709
   65         97.616290000000        -0.000002889928
   66         44.380200000000         0.000000698097
   67         21.423080000000         0.000012055107
   68         10.308910000000         0.000017819305
   69          4.553645000000        -0.000007734939
   70          2.132821000000        -0.000037192313
   71          0.929697000000        -0.000038405563
   72          0.192147000000         0.000053881056
   73          0.087595000000         0.000098487970
   74    5820021.000000000000         0.000000000019
   75     871523.400000000023         0.000000000155
   76     198335.000000000000         0.000000000783
   77      56176.309999999998         0.000000003474
   78      18325.820000000000         0.000000011872
   79       6614.955000000000         0.000000041558
   80       2579.199000000000         0.000000111158
   81       1068.849000000000         0.000000329255
   82        465.104500000000         0.000000661208
   83        210.413000000000         0.000001525626
   84         97.616290000000         0.000001272580
   85         44.380200000000         0.000000583835
   86         21.423080000000        -0.000009424412
   87         10.308910000000        -0.000007435676
   88          4.553645000000         0.000000632311
   89          2.132821000000         0.000048246043
   90          0.929697000000        -0.000029160327
   91          0.192147000000        -0.000060403582
   92          0.087595000000         0.000049485555
   93    5820021.000000000000        -0.000000000063
   94     871523.400000000023        -0.000000000489
   95     198335.000000000000        -0.000000002553
   96      56176.309999999998        -0.000000010884
   97      18325.820000000000        -0.000000039135
   98       6614.955000000000        -0.000000128802
   99       2579.199000000000        -0.000000371810
  100       1068.849000000000        -0.000001005628
  101        465.104500000000        -0.000002276475
  102        210.413000000000        -0.000004506386
  103         97.616290000000        -0.000005166855
  104         44.380200000000         0.000000574907
  105         21.423080000000         0.000025909347
  106         10.308910000000         0.000046044602
  107          4.553645000000        -0.000070114239
  108          2.132821000000        -0.000123396668
  109          0.929697000000         0.000216924039
  110          0.192147000000        -0.000161205221
  111          0.087595000000         0.000046777224
  112          0.037702000000        -0.000106741005
  113          0.016230000000         0.000036007499
 S 112
    1    5820021.000000000000        -0.000000003785
    2     871523.400000000023        -0.000000029428
    3     198335.000000000000        -0.000000154720
    4      56176.309999999998        -0.000000652455
    5      18325.820000000000        -0.000002363243
    6       6614.955000000000        -0.000007582042
    7       2579.199000000000        -0.000021665783
    8       1068.849000000000        -0.000053917114
    9        465.104500000000        -0.000109636918
   10        210.413000000000        -0.000158591795
   11         97.616290000000        -0.000123873269
   12         44.380200000000        -0.000030357648
   13         21.423080000000         0.000000580412
   14         10.308910000000        -0.000000847315
   15          4.553645000000         0.000000387765
   16          2.132821000000        -0.000000165572
   17    5820021.000000000000         0.000002639236
   18     871523.400000000023         0.000020520486
   19     198335.000000000000         0.000107950579
   20      56176.309999999998         0.000455708595
   21      18325.820000000000         0.001657215769
   22       6614.955000000000         0.005366736036
   23       2579.199000000000         0.015707350649
   24       1068.849000000000         0.041212095650
   25        465.104500000000         0.094033822699
   26        210.413000000000         0.171939142546
   27         97.616290000000         0.195788239265
   28         44.380200000000        -0.045314243452
   29         21.423080000000        -0.524272661137
   30         10.308910000000        -0.500450455619
   31          4.553645000000        -0.089426010347
   32          2.132821000000         0.002145559986
   33          0.929697000000        -0.002111422155
   34          0.192147000000         0.000413262783
   35          0.087595000000        -0.000320870213
   36    5820021.000000000000        -0.000000000046
   37     871523.400000000023        -0.000000000355
   38     198335.000000000000        -0.000000001864
   39      56176.309999999998        -0.000000007880
   40      18325.820000000000        -0.000000028632
   41       6614.955000000000        -0.000000092987
   42       2579.199000000000        -0.000000272377
   43       1068.849000000000        -0.000000721184
   44        465.104500000000        -0.000001663923
   45        210.413000000000        -0.000003152686
   46         97.616290000000        -0.000003768257
   47         44.380200000000         0.000000920034
   48         21.423080000000         0.000014877659
   49         10.308910000000         0.000021054517
   50          4.553645000000        -0.000007481292
   51          2.132821000000        -0.000033378376
   52          0.929697000000        -0.000017243543
   53          0.192147000000        -0.000000655583
   54    5820021.000000000000        -0.000000001544
   55     871523.400000000023        -0.000000012010
   56     198335.000000000000        -0.000000063115
   57      56176.309999999998        -0.000000266863
   58      18325.820000000000        -0.000000969218
   59       6614.955000000000        -0.000003149840
   60       2579.199000000000        -0.000009223990
   61       1068.849000000000        -0.000024462094
   62        465.104500000000        -0.000056484921
   63        210.413000000000        -0.000107594343
   64         97.616290000000        -0.000129197136
   65         44.380200000000         0.000031209141
   66         21.423080000000         0.000538935773
   67         10.308910000000         0.000796630087
   68          4.553645000000        -0.000345798266
   69          2.132821000000        -0.001662720010
   70          0.929697000000        -0.001716959576
   71          0.192147000000         0.002408807137
   72          0.087595000000         0.004403004392
   73    5820021.000000000000         0.000000000256
   74     871523.400000000023         0.000000002043
   75     198335.000000000000         0.000000010355
   76      56176.309999999998         0.000000045928
   77      18325.820000000000         0.000000156980
   78       6614.955000000000         0.000000549489
   79       2579.199000000000         0.000001469764
   80       1068.849000000000         0.000004353494
   81        465.104500000000         0.000008742657
   82        210.413000000000         0.000020172220
   83         97.616290000000         0.000016826380
   84         44.380200000000         0.000007719621
   85         21.423080000000        -0.000124611980
   86         10.308910000000        -0.000098316407
   87          4.553645000000         0.000008360580
   88          2.132821000000         0.000637921472
   89          0.929697000000        -0.000385565278
   90          0.192147000000        -0.000798671560
   91          0.087595000000         0.000654310618
   92    5820021.000000000000        -0.000000003183
   93     871523.400000000023        -0.000000024874
   94     198335.000000000000        -0.000000129930
   95      56176.309999999998        -0.000000553813
   96      18325.820000000000        -0.000001991331
   97       6614.955000000000        -0.000006553866
   98       2579.199000000000        -0.000018918962
   99       1068.849000000000        -0.000051169729
  100        465.104500000000        -0.000115834749
  101        210.413000000000        -0.000229300172
  102         97.616290000000        -0.000262907056
  103         44.380200000000         0.000029253194
  104         21.423080000000         0.001318355159
  105         10.308910000000         0.002342904993
  106          4.553645000000        -0.003567649500
  107          2.132821000000        -0.006278839609
  108          0.929697000000         0.011037828446
  109          0.192147000000        -0.008202666618
  110          0.087595000000         0.002380183291
  111          0.037702000000        -0.004403199755
  112          0.016230000000         0.001416469246
 S 111
    1    5820021.000000000000        -0.000000000738
    2     871523.400000000023        -0.000000005738
    3     198335.000000000000        -0.000000030170
    4      56176.309999999998        -0.000000127227
    5      18325.820000000000        -0.000000460826
    6       6614.955000000000        -0.000001478479
    7       2579.199000000000        -0.000004224773
    8       1068.849000000000        -0.000010513701
    9        465.104500000000        -0.000021378923
   10        210.413000000000        -0.000030925001
   11         97.616290000000        -0.000024154975
   12         44.380200000000        -0.000005919665
   13         21.423080000000         0.000000113179
   14         10.308910000000        -0.000000165224
   15          4.553645000000         0.000000075613
   16    5820021.000000000000         0.000000005233
   17     871523.400000000023         0.000000040687
   18     198335.000000000000         0.000000214041
   19      56176.309999999998         0.000000903566
   20      18325.820000000000         0.000003285879
   21       6614.955000000000         0.000010641007
   22       2579.199000000000         0.000031144075
   23       1068.849000000000         0.000081714136
   24        465.104500000000         0.000186447509
   25        210.413000000000         0.000340915894
   26         97.616290000000         0.000388203185
   27         44.380200000000        -0.000089847754
   28         21.423080000000        -0.001039512472
   29         10.308910000000        -0.000992278501
   30          4.553645000000        -0.000177311273
   31          2.132821000000         0.000004254153
   32          0.929697000000        -0.000004186466
   33          0.192147000000         0.000000819405
   34    5820021.000000000000         0.000000994594
   35     871523.400000000023         0.000007737815
   36     198335.000000000000         0.000040674073
   37      56176.309999999998         0.000171917067
   38      18325.820000000000         0.000624614385
   39       6614.955000000000         0.002028559546
   40       2579.199000000000         0.005942063740
   41       1068.849000000000         0.015733085351
   42        465.104500000000         0.036299516142
   43        210.413000000000         0.068777793719
   44         97.616290000000         0.082206857812
   45         44.380200000000        -0.020071099650
   46         21.423080000000        -0.324565336189
   47         10.308910000000        -0.459317300271
   48          4.553645000000         0.163209006582
   49          2.132821000000         0.728169907599
   50          0.929697000000         0.376178545741
   51          0.192147000000         0.014301955754
   52          0.087595000000        -0.006657113629
   53    5820021.000000000000         0.000000001566
   54     871523.400000000023         0.000000012185
   55     198335.000000000000         0.000000064036
   56      56176.309999999998         0.000000270758
   57      18325.820000000000         0.000000983363
   58       6614.955000000000         0.000003195810
   59       2579.199000000000         0.000009358607
   60       1068.849000000000         0.000024819100
   61        465.104500000000         0.000057309277
   62        210.413000000000         0.000109164604
   63         97.616290000000         0.000131082673
   64         44.380200000000        -0.000031664616
   65         21.423080000000        -0.000546801146
   66         10.308910000000        -0.000808256320
   67          4.553645000000         0.000350844939
   68          2.132821000000         0.001686986191
   69          0.929697000000         0.001742017343
   70          0.192147000000        -0.002443961913
   71          0.087595000000        -0.004467263017
   72    5820021.000000000000        -0.000000002693
   73     871523.400000000023        -0.000000021482
   74     198335.000000000000        -0.000000108853
   75      56176.309999999998        -0.000000482821
   76      18325.820000000000        -0.000001650262
   77       6614.955000000000        -0.000005776546
   78       2579.199000000000        -0.000015450995
   79       1068.849000000000        -0.000045766411
   80        465.104500000000        -0.000091907801
   81        210.413000000000        -0.000212061878
   82         97.616290000000        -0.000176888503
   83         44.380200000000        -0.000081153058
   84         21.423080000000         0.001309992187
   85         10.308910000000         0.001033558130
   86          4.553645000000        -0.000087891186
   87          2.132821000000        -0.006706194256
   88          0.929697000000         0.004053282054
   89          0.192147000000         0.008396090835
   90          0.087595000000        -0.006878486306
   91    5820021.000000000000         0.000000002266
   92     871523.400000000023         0.000000017705
   93     198335.000000000000         0.000000092485
   94      56176.309999999998         0.000000394204
   95      18325.820000000000         0.000001417430
   96       6614.955000000000         0.000004665045
   97       2579.199000000000         0.000013466527
   98       1068.849000000000         0.000036422640
   99        465.104500000000         0.000082451236
  100        210.413000000000         0.000163215984
  101         97.616290000000         0.000187137382
  102         44.380200000000        -0.000020822439
  103         21.423080000000        -0.000938405900
  104         10.308910000000        -0.001667681015
  105          4.553645000000         0.002539454803
  106          2.132821000000         0.004469281359
  107          0.929697000000        -0.007856732132
  108          0.192147000000         0.005838662442
  109          0.087595000000        -0.001694215727
  110          0.037702000000         0.010349296858
  111          0.016230000000        -0.003116473506
 S 113
    1    5820021.000000000000        -0.000000003324
    2     871523.400000000023        -0.000000025845
    3     198335.000000000000        -0.000000135886
    4      56176.309999999998        -0.000000573032
    5      18325.820000000000        -0.000002075566
    6       6614.955000000000        -0.000006659084
    7       2579.199000000000        -0.000019028417
    8       1068.849000000000        -0.000047353808
    9        465.104500000000        -0.000096290865
   10        210.413000000000        -0.000139286487
   11         97.616290000000        -0.000108794231
   12         44.380200000000        -0.000026662225
   13         21.423080000000         0.000000509758
   14         10.308910000000        -0.000000744172
   15          4.553645000000         0.000000340562
   16          2.132821000000        -0.000000145417
   17    5820021.000000000000         0.000000009417
   18     871523.400000000023         0.000000073221
   19     198335.000000000000         0.000000385187
   20      56176.309999999998         0.000001626051
   21      18325.820000000000         0.000005913247
   22       6614.955000000000         0.000019149489
   23       2579.199000000000         0.000056046681
   24       1068.849000000000         0.000147052246
   25        465.104500000000         0.000335529766
   26        210.413000000000         0.000613510102
   27         97.616290000000         0.000698608013
   28         44.380200000000        -0.000161689454
   29         21.423080000000        -0.001870700117
   30         10.308910000000        -0.001785698159
   31          4.553645000000        -0.000319088254
   32          2.132821000000         0.000007655748
   33          0.929697000000        -0.000007533938
   34          0.192147000000         0.000001474597
   35          0.087595000000        -0.000001144923
   36    5820021.000000000000        -0.000000010733
   37     871523.400000000023        -0.000000083498
   38     198335.000000000000        -0.000000438909
   39      56176.309999999998        -0.000001855134
   40      18325.820000000000        -0.000006740131
   41       6614.955000000000        -0.000021889916
   42       2579.199000000000        -0.000064120018
   43       1068.849000000000        -0.000169773628
   44        465.104500000000        -0.000391703242
   45        210.413000000000        -0.000742172008
   46         97.616290000000        -0.000887083250
   47         44.380200000000         0.000216584562
   48         21.423080000000         0.003502341299
   49         10.308910000000         0.004956431789
   50          4.553645000000        -0.001761166645
   51          2.132821000000        -0.007857584454
   52          0.929697000000        -0.004059292566
   53          0.192147000000        -0.000154330499
   54          0.087595000000         0.000071836026
   55    5820021.000000000000         0.000000211665
   56     871523.400000000023         0.000001646871
   57     198335.000000000000         0.000008654610
   58      56176.309999999998         0.000036593308
   59      18325.820000000000         0.000132902928
   60       6614.955000000000         0.000431918211
   61       2579.199000000000         0.001264828875
   62       1068.849000000000         0.003354336179
   63        465.104500000000         0.007745429193
   64        210.413000000000         0.014753749389
   65         97.616290000000         0.017716007216
   66         44.380200000000        -0.004279517227
   67         21.423080000000        -0.073900942024
   68         10.308910000000        -0.109236975574
   69          4.553645000000         0.047417185679
   70          2.132821000000         0.227998550519
   71          0.929697000000         0.235436087972
   72          0.192147000000        -0.330304881376
   73          0.087595000000        -0.603756864207
   74    5820021.000000000000         0.000000033321
   75     871523.400000000023         0.000000265835
   76     198335.000000000000         0.000001347025
   77      56176.309999999998         0.000005974772
   78      18325.820000000000         0.000020421508
   79       6614.955000000000         0.000071483047
   80       2579.199000000000         0.000191201484
   81       1068.849000000000         0.000566345764
   82        465.104500000000         0.001137331767
   83        210.413000000000         0.002624202831
   84         97.616290000000         0.002188942747
   85         44.380200000000         0.001004245014
   86         21.423080000000        -0.016210764710
   87         10.308910000000        -0.012789975254
   88          4.553645000000         0.001087627355
   89          2.132821000000         0.082987164535
   90          0.929697000000        -0.050158163014
   91          0.192147000000        -0.103899133394
   92          0.087595000000         0.085119227546
   93    5820021.000000000000        -0.000000007954
   94     871523.400000000023        -0.000000062151
   95     198335.000000000000        -0.000000324646
   96      56176.309999999998        -0.000001383766
   97      18325.820000000000        -0.000004975571
   98       6614.955000000000        -0.000016375594
   99       2579.199000000000        -0.000047271221
  100       1068.849000000000        -0.000127853504
  101        465.104500000000        -0.000289426556
  102        210.413000000000        -0.000572933077
  103         97.616290000000        -0.000656903776
  104         44.380200000000         0.000073092499
  105         21.423080000000         0.003294063286
  106         10.308910000000         0.005854019886
  107          4.553645000000        -0.008914186100
  108          2.132821000000        -0.015688409067
  109          0.929697000000         0.027579294685
  110          0.192147000000        -0.020495313998
  111          0.087595000000         0.005947164037
  112          0.037702000000        -0.192261993543
  113          0.016230000000        -0.002172291062
 S 112
    1    5820021.000000000000         0.000000002872
    2     871523.400000000023         0.000000022333
    3     198335.000000000000         0.000000117418
    4      56176.309999999998         0.000000495153
    5      18325.820000000000         0.000001793482
    6       6614.955000000000         0.000005754068
    7       2579.199000000000         0.000016442324
    8       1068.849000000000         0.000040918099
    9        465.104500000000         0.000083204273
   10        210.413000000000         0.000120356494
   11         97.616290000000         0.000094008345
   12         44.380200000000         0.000023038645
   13         21.423080000000        -0.000000440479
   14         10.308910000000         0.000000643034
   15          4.553645000000        -0.000000294278
   16          2.132821000000         0.000000125653
   17    5820021.000000000000        -0.000000005234
   18     871523.400000000023        -0.000000040692
   19     198335.000000000000        -0.000000214065
   20      56176.309999999998        -0.000000903666
   21      18325.820000000000        -0.000003286245
   22       6614.955000000000        -0.000010642192
   23       2579.199000000000        -0.000031147543
   24       1068.849000000000        -0.000081723236
   25        465.104500000000        -0.000186468273
   26        210.413000000000        -0.000340953862
   27         97.616290000000        -0.000388246418
   28         44.380200000000         0.000089857761
   29         21.423080000000         0.001039628242
   30         10.308910000000         0.000992389010
   31          4.553645000000         0.000177331020
   32          2.132821000000        -0.000004254627
   33          0.929697000000         0.000004186932
   34          0.192147000000        -0.000000819497
   35    5820021.000000000000         0.000000006673
   36     871523.400000000023         0.000000051911
   37     198335.000000000000         0.000000272874
   38      56176.309999999998         0.000001153357
   39      18325.820000000000         0.000004190414
   40       6614.955000000000         0.000013609203
   41       2579.199000000000         0.000039864126
   42       1068.849000000000         0.000105550146
   43        465.104500000000         0.000243526248
   44        210.413000000000         0.000461416565
   45         97.616290000000         0.000551509490
   46         44.380200000000        -0.000134653023
   47         21.423080000000        -0.002177444411
   48         10.308910000000        -0.003081468588
   49          4.553645000000         0.001094936826
   50          2.132821000000         0.004885147361
   51          0.929697000000         0.002523707188
   52          0.192147000000         0.000095948982
   53          0.087595000000        -0.000044661254
   54    5820021.000000000000         0.000000048911
   55     871523.400000000023         0.000000380555
   56     198335.000000000000         0.000001999885
   57      56176.309999999998         0.000008455888
   58      18325.820000000000         0.000030710869
   59       6614.955000000000         0.000099806556
   60       2579.199000000000         0.000292273422
   61       1068.849000000000         0.000775111427
   62        465.104500000000         0.001789793973
   63        210.413000000000         0.003409258684
   64         97.616290000000         0.004093769649
   65         44.380200000000        -0.000988899898
   66         21.423080000000        -0.017076840723
   67         10.308910000000        -0.025242201004
   68          4.553645000000         0.010957042024
   69          2.132821000000         0.052685322076
   70          0.929697000000         0.054403969213
   71          0.192147000000        -0.076326007420
   72          0.087595000000        -0.139514592413
   73    5820021.000000000000         0.000000033690
   74     871523.400000000023         0.000000268783
   75     198335.000000000000         0.000001361962
   76      56176.309999999998         0.000006041025
   77      18325.820000000000         0.000020647958
   78       6614.955000000000         0.000072275708
   79       2579.199000000000         0.000193321678
   80       1068.849000000000         0.000572625857
   81        465.104500000000         0.001149943408
   82        210.413000000000         0.002653302082
   83         97.616290000000         0.002213215487
   84         44.380200000000         0.001015380883
   85         21.423080000000        -0.016390522578
   86         10.308910000000        -0.012931800684
   87          4.553645000000         0.001099687833
   88          2.132821000000         0.083907392298
   89          0.929697000000        -0.050714356666
   90          0.192147000000        -0.105051249719
   91          0.087595000000         0.086063097321
   92    5820021.000000000000        -0.000000015687
   93     871523.400000000023        -0.000000122569
   94     198335.000000000000        -0.000000640236
   95      56176.309999999998        -0.000002728931
   96      18325.820000000000        -0.000009812343
   97       6614.955000000000        -0.000032294371
   98       2579.199000000000        -0.000093223751
   99       1068.849000000000        -0.000252140374
  100        465.104500000000        -0.000570779194
  101        210.413000000000        -0.001129883465
  102         97.616290000000        -0.001295482395
  103         44.380200000000         0.000144145990
  104         21.423080000000         0.006496234533
  105         10.308910000000         0.011544734525
  106          4.553645000000        -0.017579699767
  107          2.132821000000        -0.030939170231
  108          0.929697000000         0.054389230258
  109          0.192147000000        -0.040418885435
  110          0.087595000000         0.011728424454
  111          0.037702000000        -1.044565451427
  112          0.016230000000         1.774638302383
 S 116
    1    5820021.000000000000         0.000000215194
    2     871523.400000000023         0.000001673239
    3     198335.000000000000         0.000008797273
    4      56176.309999999998         0.000037098264
    5      18325.820000000000         0.000134372694
    6       6614.955000000000         0.000431110831
    7       2579.199000000000         0.001231904708
    8       1068.849000000000         0.003065697938
    9        465.104500000000         0.006233895917
   10        210.413000000000         0.009017443744
   11         97.616290000000         0.007043367097
   12         44.380200000000         0.001726119479
   13         21.423080000000        -0.000033001887
   14         10.308910000000         0.000048177889
   15          4.553645000000        -0.000022048093
   16          2.132821000000         0.000009414307
   17          0.929697000000        -0.000003527503
   18          0.192147000000         0.000001197431
   19          0.087595000000        -0.000000916917
   20    5820021.000000000000        -0.000000467570
   21     871523.400000000023        -0.000003635428
   22     198335.000000000000        -0.000019124624
   23      56176.309999999998        -0.000080733755
   24      18325.820000000000        -0.000293593873
   25       6614.955000000000        -0.000950775902
   26       2579.199000000000        -0.002782728716
   27       1068.849000000000        -0.007301172845
   28        465.104500000000        -0.016659118688
   29        210.413000000000        -0.030460896947
   30         97.616290000000        -0.034686024901
   31         44.380200000000         0.008027913130
   32         21.423080000000         0.092880627801
   33         10.308910000000         0.088660263917
   34          4.553645000000         0.015842794405
   35          2.132821000000        -0.000380109384
   36          0.929697000000         0.000374061495
   37          0.192147000000        -0.000073214015
   38          0.087595000000         0.000056845663
   39    5820021.000000000000         0.000000809613
   40     871523.400000000023         0.000006298689
   41     198335.000000000000         0.000033109259
   42      56176.309999999998         0.000139942874
   43      18325.820000000000         0.000508444762
   44       6614.955000000000         0.001651275569
   45       2579.199000000000         0.004836922193
   46       1068.849000000000         0.012806949407
   47        465.104500000000         0.029548308954
   48        210.413000000000         0.055986076783
   49         97.616290000000         0.066917520972
   50         44.380200000000        -0.016338153136
   51         21.423080000000        -0.264200679472
   52         10.308910000000        -0.373890644792
   53          4.553645000000         0.132854392097
   54          2.132821000000         0.592740391250
   55          0.929697000000         0.306214546983
   56          0.192147000000         0.011641990091
   57          0.087595000000        -0.005418982707
   58    5820021.000000000000        -0.000000705640
   59     871523.400000000023        -0.000005490276
   60     198335.000000000000        -0.000028852410
   61      56176.309999999998        -0.000121993375
   62      18325.820000000000        -0.000443066715
   63       6614.955000000000        -0.001439912468
   64       2579.199000000000        -0.004216638287
   65       1068.849000000000        -0.011182558082
   66        465.104500000000        -0.025821416580
   67        210.413000000000        -0.049185487285
   68         97.616290000000        -0.059060949507
   69         44.380200000000         0.014266891392
   70         21.423080000000         0.246368143348
   71         10.308910000000         0.364170064955
   72          4.553645000000        -0.158077606029
   73          2.132821000000        -0.760092876207
   74          0.929697000000        -0.784887855044
   75          0.192147000000         1.101157822008
   76          0.087595000000         2.012781618132
   77    5820021.000000000000         0.000000198810
   78     871523.400000000023         0.000001586131
   79     198335.000000000000         0.000008037153
   80      56176.309999999998         0.000035649042
   81      18325.820000000000         0.000121846857
   82       6614.955000000000         0.000426510356
   83       2579.199000000000         0.001140821722
   84       1068.849000000000         0.003379155526
   85        465.104500000000         0.006785997476
   86        210.413000000000         0.015657554199
   87         97.616290000000         0.013060533771
   88         44.380200000000         0.005991922786
   89         21.423080000000        -0.096723059689
   90         10.308910000000        -0.076312596107
   91          4.553645000000         0.006489431402
   92          2.132821000000         0.495150760136
   93          0.929697000000        -0.299273419962
   94          0.192147000000        -0.619923998675
   95          0.087595000000         0.507871915584
   96    5820021.000000000000        -0.000000146841
   97     871523.400000000023        -0.000001147357
   98     198335.000000000000        -0.000005993217
   99      56176.309999999998        -0.000025545372
  100      18325.820000000000        -0.000091852805
  101       6614.955000000000        -0.000302305839
  102       2579.199000000000        -0.000872662424
  103       1068.849000000000        -0.002360272220
  104        465.104500000000        -0.005343032754
  105        210.413000000000        -0.010576777193
  106         97.616290000000        -0.012126939693
  107         44.380200000000         0.001349342712
  108         21.423080000000         0.060810895423
  109         10.308910000000         0.108069627149
  110          4.553645000000        -0.164562606026
  111          2.132821000000        -0.289619876843
  112          0.929697000000         0.509134603526
  113          0.192147000000        -0.378358971313
  114          0.087595000000         0.109789138509
  115          0.037702000000        -4.636767124534
  116          0.016230000000         2.272356160080
 S 116
    1    5820021.000000000000        -0.000000283657
    2     871523.400000000023        -0.000002205572
    3     198335.000000000000        -0.000011596081
    4      56176.309999999998        -0.000048900888
    5      18325.820000000000        -0.000177122683
    6       6614.955000000000        -0.000568266549
    7       2579.199000000000        -0.001623828926
    8       1068.849000000000        -0.004041034145
    9        465.104500000000        -0.008217178199
   10        210.413000000000        -0.011886297611
   11         97.616290000000        -0.009284178518
   12         44.380200000000        -0.002275275613
   13         21.423080000000         0.000043501270
   14         10.308910000000        -0.000063505440
   15          4.553645000000         0.000029062582
   16          2.132821000000        -0.000012409421
   17          0.929697000000         0.000004649760
   18          0.192147000000        -0.000001578388
   19          0.087595000000         0.000001208630
   20    5820021.000000000000         0.000000612501
   21     871523.400000000023         0.000004762291
   22     198335.000000000000         0.000025052626
   23      56176.309999999998         0.000105758552
   24      18325.820000000000         0.000384598275
   25       6614.955000000000         0.001245485025
   26       2579.199000000000         0.003645282696
   27       1068.849000000000         0.009564295247
   28        465.104500000000         0.021822895179
   29        210.413000000000         0.039902768783
   30         97.616290000000         0.045437546833
   31         44.380200000000        -0.010516301014
   32         21.423080000000        -0.121670554284
   33         10.308910000000        -0.116142017008
   34          4.553645000000        -0.020753537334
   35          2.132821000000         0.000497930737
   36          0.929697000000        -0.000490008202
   37          0.192147000000         0.000095907942
   38          0.087595000000        -0.000074465940
   39    5820021.000000000000        -0.000001074163
   40     871523.400000000023        -0.000008356854
   41     198335.000000000000        -0.000043928070
   42      56176.309999999998        -0.000185670732
   43      18325.820000000000        -0.000674584624
   44       6614.955000000000        -0.002190847842
   45       2579.199000000000        -0.006417439188
   46       1068.849000000000        -0.016991759579
   47        465.104500000000        -0.039203540650
   48        210.413000000000        -0.074280136994
   49         97.616290000000        -0.088783549601
   50         44.380200000000         0.021676822576
   51         21.423080000000         0.350531128321
   52         10.308910000000         0.496063484202
   53          4.553645000000        -0.176266011340
   54          2.132821000000        -0.786424768328
   55          0.929697000000        -0.406273484522
   56          0.192147000000        -0.015446137121
   57          0.087595000000         0.007189694313
   58    5820021.000000000000         0.000001005973
   59     871523.400000000023         0.000007827035
   60     198335.000000000000         0.000041132507
   61      56176.309999999998         0.000173915920
   62      18325.820000000000         0.000631643774
   63       6614.955000000000         0.002052764775
   64       2579.199000000000         0.006011314393
   65       1068.849000000000         0.015942053306
   66        465.104500000000         0.036811469840
   67        210.413000000000         0.070119703782
   68         97.616290000000         0.084198338027
   69         44.380200000000        -0.020339133625
   70         21.423080000000        -0.351226798521
   71         10.308910000000        -0.519167309106
   72          4.553645000000         0.225358241244
   73          2.132821000000         1.083601896985
   74          0.929697000000         1.118950058961
   75          0.192147000000        -1.569830138080
   76          0.087595000000        -2.869457204376
   77    5820021.000000000000        -0.000001206507
   78     871523.400000000023        -0.000009625641
   79     198335.000000000000        -0.000048774517
   80      56176.309999999998        -0.000216340887
   81      18325.820000000000        -0.000739443631
   82       6614.955000000000        -0.002588334026
   83       2579.199000000000        -0.006923226223
   84       1068.849000000000        -0.020506848434
   85        465.104500000000        -0.041181715568
   86        210.413000000000        -0.095019920920
   87         97.616290000000        -0.079259561888
   88         44.380200000000        -0.036362769184
   89         21.423080000000         0.586976571557
   90         10.308910000000         0.463112996771
   91          4.553645000000        -0.039381965459
   92          2.132821000000        -3.004887319765
   93          0.929697000000         1.816179994429
   94          0.192147000000         3.762090080049
   95          0.087595000000        -3.082087319797
   96    5820021.000000000000         0.000000652425
   97     871523.400000000023         0.000005097777
   98     198335.000000000000         0.000026628214
   99      56176.309999999998         0.000113499589
  100      18325.820000000000         0.000408107412
  101       6614.955000000000         0.001343162606
  102       2579.199000000000         0.003877290435
  103       1068.849000000000         0.010486828183
  104        465.104500000000         0.023739408523
  105        210.413000000000         0.046993242643
  106         97.616290000000         0.053880705731
  107         44.380200000000        -0.005995208966
  108         21.423080000000        -0.270186382085
  109         10.308910000000        -0.480159704437
  110          4.553645000000         0.731161329554
  111          2.132821000000         1.286798133130
  112          0.929697000000        -2.262114964177
  113          0.192147000000         1.681071144860
  114          0.087595000000        -0.487799594460
  115          0.037702000000         4.460372533791
  116          0.016230000000        -1.435301901827
 S 115
    1    5820021.000000000000         0.000000174406
    2     871523.400000000023         0.000001356087
    3     198335.000000000000         0.000007129805
    4      56176.309999999998         0.000030066520
    5      18325.820000000000         0.000108903191
    6       6614.955000000000         0.000349396472
    7       2579.199000000000         0.000998404886
    8       1068.849000000000         0.002484614092
    9        465.104500000000         0.005052299985
   10        210.413000000000         0.007308243753
   11         97.616290000000         0.005708340972
   12         44.380200000000         0.001398944341
   13         21.423080000000        -0.000026746586
   14         10.308910000000         0.000039046072
   15          4.553645000000        -0.000017869015
   16          2.132821000000         0.000007629884
   17          0.929697000000        -0.000002858887
   18          0.192147000000         0.000000970466
   19    5820021.000000000000        -0.000000387015
   20     871523.400000000023        -0.000003009103
   21     198335.000000000000        -0.000015829764
   22      56176.309999999998        -0.000066824646
   23      18325.820000000000        -0.000243012440
   24       6614.955000000000        -0.000786972732
   25       2579.199000000000        -0.002303309976
   26       1068.849000000000        -0.006043299929
   27        465.104500000000        -0.013789024437
   28        210.413000000000        -0.025212981566
   29         97.616290000000        -0.028710188933
   30         44.380200000000         0.006644834724
   31         21.423080000000         0.076878811568
   32         10.308910000000         0.073385547500
   33          4.553645000000         0.013113339505
   34          2.132821000000        -0.000314622741
   35          0.929697000000         0.000309616804
   36          0.192147000000        -0.000060600436
   37          0.087595000000         0.000047052083
   38    5820021.000000000000         0.000000662370
   39     871523.400000000023         0.000005153152
   40     198335.000000000000         0.000027087710
   41      56176.309999999998         0.000114491598
   42      18325.820000000000         0.000415974402
   43       6614.955000000000         0.001350959669
   44       2579.199000000000         0.003957235802
   45       1068.849000000000         0.010477761827
   46        465.104500000000         0.024174386401
   47        210.413000000000         0.045803942804
   48         97.616290000000         0.054747295743
   49         44.380200000000        -0.013366748927
   50         21.423080000000        -0.216150755805
   51         10.308910000000        -0.305891512549
   52          4.553645000000         0.108692291485
   53          2.132821000000         0.484939265942
   54          0.929697000000         0.250523601609
   55          0.192147000000         0.009524672542
   56          0.087595000000        -0.004433437530
   57    5820021.000000000000        -0.000000624020
   58     871523.400000000023        -0.000004855223
   59     198335.000000000000        -0.000025515087
   60      56176.309999999998        -0.000107882551
   61      18325.820000000000        -0.000391817733
   62       6614.955000000000        -0.001273359563
   63       2579.199000000000        -0.003728904920
   64       1068.849000000000        -0.009889085336
   65        465.104500000000        -0.022834685069
   66        210.413000000000        -0.043496262440
   67         97.616290000000        -0.052229442087
   68         44.380200000000         0.012616657605
   69         21.423080000000         0.217871043094
   70         10.308910000000         0.322046961256
   71          4.553645000000        -0.139792963682
   72          2.132821000000        -0.672173867682
   73          0.929697000000        -0.694100841800
   74          0.192147000000         0.973788250511
   75          0.087595000000         1.779965642897
   76    5820021.000000000000         0.000000408003
   77     871523.400000000023         0.000003255092
   78     198335.000000000000         0.000016494020
   79      56176.309999999998         0.000073159739
   80      18325.820000000000         0.000250056766
   81       6614.955000000000         0.000875293815
   82       2579.199000000000         0.002341219112
   83       1068.849000000000         0.006934776352
   84        465.104500000000         0.013926371386
   85        210.413000000000         0.032132772751
   86         97.616290000000         0.026803111030
   87         44.380200000000         0.012296754064
   88         21.423080000000        -0.198497163555
   89         10.308910000000        -0.156610366953
   90          4.553645000000         0.013317752050
   91          2.132821000000         1.016159142763
   92          0.929697000000        -0.614175411538
   93          0.192147000000        -1.272221492497
   94          0.087595000000         1.042265774229
   95    5820021.000000000000        -0.000001213424
   96     871523.400000000023        -0.000009481183
   97     198335.000000000000        -0.000049524915
   98      56176.309999999998        -0.000211094051
   99      18325.820000000000        -0.000759025188
  100       6614.955000000000        -0.002498102758
  101       2579.199000000000        -0.007211241501
  102       1068.849000000000        -0.019504097481
  103        465.104500000000        -0.044152123969
  104        210.413000000000        -0.087401144509
  105         97.616290000000        -0.100210904441
  106         44.380200000000         0.011150286631
  107         21.423080000000         0.502510524854
  108         10.308910000000         0.893032813972
  109          4.553645000000        -1.359862257423
  110          2.132821000000        -2.393272378386
  111          0.929697000000         4.207231205200
  112          0.192147000000        -3.126567433937
  113          0.087595000000         0.907241987342
  114          0.037702000000        -2.165004214365
  115          0.016230000000         0.667916709993
 P 77
    1      24411.980000000000         0.000040997940
    2       5778.518000000000         0.000360981866
    3       1876.862000000000         0.002087895115
    4        718.236100000000         0.009220536809
    5        304.832700000000         0.032771353741
    6        139.045300000000         0.094174269183
    7         66.804170000000         0.209121494842
    8         33.206990000000         0.334552193868
    9         16.928160000000         0.330342405345
   10          8.696229000000         0.152339347277
   11          4.350510000000         0.022982845463
   12          2.116523000000         0.001606919277
   13          0.995387000000         0.000467976491
   14          0.378112000000         0.000065996685
   15          0.134579000000        -0.000001999900
   16      24411.980000000000         0.000000013382
   17       5778.518000000000         0.000000120435
   18       1876.862000000000         0.000000697632
   19        718.236100000000         0.000003102766
   20        304.832700000000         0.000011169245
   21        139.045300000000         0.000033022425
   22         66.804170000000         0.000076328227
   23         33.206990000000         0.000129104692
   24         16.928160000000         0.000127966357
   25          8.696229000000        -0.000038891631
   26          4.350510000000        -0.000311247238
   27          2.116523000000        -0.000404898499
   28          0.995387000000        -0.000239615981
   29          0.378112000000        -0.000034674617
   30          0.134579000000         0.000002223144
   31      24411.980000000000        -0.000000108451
   32       5778.518000000000        -0.000000903756
   33       1876.862000000000        -0.000005205633
   34        718.236100000000        -0.000023316899
   35        304.832700000000        -0.000083543184
   36        139.045300000000        -0.000249364295
   37         66.804170000000        -0.000574137971
   38         33.206990000000        -0.000988708823
   39         16.928160000000        -0.000962355304
   40          8.696229000000         0.000392519210
   41          4.350510000000         0.002886704410
   42          2.116523000000         0.003836515584
   43          0.995387000000         0.002490136374
   44          0.378112000000        -0.006665560375
   45          0.134579000000        -0.020308766070
   46      24411.980000000000         0.000000124037
   47       5778.518000000000         0.000001041913
   48       1876.862000000000         0.000005904171
   49        718.236100000000         0.000026990498
   50        304.832700000000         0.000094789240
   51        139.045300000000         0.000288857867
   52         66.804170000000         0.000649136362
   53         33.206990000000         0.001159747962
   54         16.928160000000         0.001074385551
   55          8.696229000000        -0.000333139153
   56          4.350510000000        -0.003817791062
   57          2.116523000000        -0.004153088462
   58          0.995387000000        -0.002108508622
   59          0.378112000000         0.011183517821
   60          0.134579000000         0.015898321216
   61      24411.980000000000        -0.000000052486
[...]
  BAS[ATNO][ 14].a[ 65] =        66.804170000000;     BAS[ATNO][ 14].d[ 65] =         0.219633661299;
  BAS[ATNO][ 14].a[ 66] =        33.206990000000;     BAS[ATNO][ 14].d[ 66] =         0.339077625130;
  BAS[ATNO][ 14].a[ 67] =        16.928160000000;     BAS[ATNO][ 14].d[ 67] =         0.458961743211;
  BAS[ATNO][ 14].a[ 68] =         8.696229000000;     BAS[ATNO][ 14].d[ 68] =        -0.265217756329;
  BAS[ATNO][ 14].a[ 69] =         4.350510000000;     BAS[ATNO][ 14].d[ 69] =        -1.641705854309;
  BAS[ATNO][ 14].a[ 70] =         2.116523000000;     BAS[ATNO][ 14].d[ 70] =        -1.533954108261;
  BAS[ATNO][ 14].a[ 71] =         0.995387000000;     BAS[ATNO][ 14].d[ 71] =         2.894199521588;
  BAS[ATNO][ 14].a[ 72] =         0.378112000000;     BAS[ATNO][ 14].d[ 72] =         2.084246203623;
  BAS[ATNO][ 14].a[ 73] =         0.134579000000;     BAS[ATNO][ 14].d[ 73] =        -2.686218364906;
  BAS[ATNO][ 14].a[ 74] =         0.046282000000;     BAS[ATNO][ 14].d[ 74] =        -0.465342760894;
  BAS[ATNO][ 14].a[ 75] =         0.015920000000;     BAS[ATNO][ 14].d[ 75] =         0.147468948109;

  // Basis function  16 L = d
  InitBFNGauss(BAS[ATNO][ 15]);
  BAS[ATNO][ 15].l  = 2;
  BAS[ATNO][ 15].ng = 23;
  BAS[ATNO][ 15].a[  0] =       205.617700000000;     BAS[ATNO][ 15].d[  0] =         0.002320154730;
  BAS[ATNO][ 15].a[  1] =        61.449810000000;     BAS[ATNO][ 15].d[  1] =         0.018432450428;
  BAS[ATNO][ 15].a[  2] =        23.056890000000;     BAS[ATNO][ 15].d[  2] =         0.076382822365;
  BAS[ATNO][ 15].a[  3] =         9.577739000000;     BAS[ATNO][ 15].d[  3] =         0.200141579610;
  BAS[ATNO][ 15].a[  4] =         4.133734000000;     BAS[ATNO][ 15].d[  4] =         0.326380980512;
  BAS[ATNO][ 15].a[  5] =         1.747518000000;     BAS[ATNO][ 15].d[  5] =         0.357608955487;
  BAS[ATNO][ 15].a[  6] =         0.699560000000;     BAS[ATNO][ 15].d[  6] =         0.269123088573;
  BAS[ATNO][ 15].a[  7] =       205.617700000000;     BAS[ATNO][ 15].d[  7] =        -0.000019287010;
  BAS[ATNO][ 15].a[  8] =        61.449810000000;     BAS[ATNO][ 15].d[  8] =        -0.000153966687;
  BAS[ATNO][ 15].a[  9] =        23.056890000000;     BAS[ATNO][ 15].d[  9] =        -0.000655058374;
  BAS[ATNO][ 15].a[ 10] =         9.577739000000;     BAS[ATNO][ 15].d[ 10] =        -0.001791539098;
  BAS[ATNO][ 15].a[ 11] =         4.133734000000;     BAS[ATNO][ 15].d[ 11] =        -0.002272202672;
  BAS[ATNO][ 15].a[ 12] =         1.747518000000;     BAS[ATNO][ 15].d[ 12] =         0.000343360534;
  BAS[ATNO][ 15].a[ 13] =         0.699560000000;     BAS[ATNO][ 15].d[ 13] =         0.003169657408;
  BAS[ATNO][ 15].a[ 14] =       205.617700000000;     BAS[ATNO][ 15].d[ 14] =         0.000057295318;
  BAS[ATNO][ 15].a[ 15] =        61.449810000000;     BAS[ATNO][ 15].d[ 15] =         0.000487546392;
  BAS[ATNO][ 15].a[ 16] =        23.056890000000;     BAS[ATNO][ 15].d[ 16] =         0.002025695896;
  BAS[ATNO][ 15].a[ 17] =         9.577739000000;     BAS[ATNO][ 15].d[ 17] =         0.006503937810;
  BAS[ATNO][ 15].a[ 18] =         4.133734000000;     BAS[ATNO][ 15].d[ 18] =         0.001844020714;
  BAS[ATNO][ 15].a[ 19] =         1.747518000000;     BAS[ATNO][ 15].d[ 19] =        -0.011683664383;
  BAS[ATNO][ 15].a[ 20] =         0.699560000000;     BAS[ATNO][ 15].d[ 20] =        -0.001728403664;
  BAS[ATNO][ 15].a[ 21] =         0.251608000000;     BAS[ATNO][ 15].d[ 21] =         0.133520054181;
  BAS[ATNO][ 15].a[ 22] =         0.090490000000;     BAS[ATNO][ 15].d[ 22] =         0.017853220249;

  // Basis function  17 L = d
  InitBFNGauss(BAS[ATNO][ 16]);
  BAS[ATNO][ 16].l  = 2;
  BAS[ATNO][ 16].ng = 23;
  BAS[ATNO][ 16].a[  0] =       205.617700000000;     BAS[ATNO][ 16].d[  0] =        -0.000298887582;
  BAS[ATNO][ 16].a[  1] =        61.449810000000;     BAS[ATNO][ 16].d[  1] =        -0.002374509968;
  BAS[ATNO][ 16].a[  2] =        23.056890000000;     BAS[ATNO][ 16].d[  2] =        -0.009839807993;
  BAS[ATNO][ 16].a[  3] =         9.577739000000;     BAS[ATNO][ 16].d[  3] =        -0.025782691106;
  BAS[ATNO][ 16].a[  4] =         4.133734000000;     BAS[ATNO][ 16].d[  4] =        -0.042045136347;
  BAS[ATNO][ 16].a[  5] =         1.747518000000;     BAS[ATNO][ 16].d[  5] =        -0.046067994736;
  BAS[ATNO][ 16].a[  6] =         0.699560000000;     BAS[ATNO][ 16].d[  6] =        -0.034669045161;
  BAS[ATNO][ 16].a[  7] =       205.617700000000;     BAS[ATNO][ 16].d[  7] =        -0.000236060313;
  BAS[ATNO][ 16].a[  8] =        61.449810000000;     BAS[ATNO][ 16].d[  8] =        -0.001884450973;
  BAS[ATNO][ 16].a[  9] =        23.056890000000;     BAS[ATNO][ 16].d[  9] =        -0.008017483633;
  BAS[ATNO][ 16].a[ 10] =         9.577739000000;     BAS[ATNO][ 16].d[ 10] =        -0.021927260160;
  BAS[ATNO][ 16].a[ 11] =         4.133734000000;     BAS[ATNO][ 16].d[ 11] =        -0.027810266145;
  BAS[ATNO][ 16].a[ 12] =         1.747518000000;     BAS[ATNO][ 16].d[ 12] =         0.004202507090;
  BAS[ATNO][ 16].a[ 13] =         0.699560000000;     BAS[ATNO][ 16].d[ 13] =         0.038794521806;
  BAS[ATNO][ 16].a[ 14] =       205.617700000000;     BAS[ATNO][ 16].d[ 14] =         0.000108966576;
  BAS[ATNO][ 16].a[ 15] =        61.449810000000;     BAS[ATNO][ 16].d[ 15] =         0.000927235633;
  BAS[ATNO][ 16].a[ 16] =        23.056890000000;     BAS[ATNO][ 16].d[ 16] =         0.003852551156;
  BAS[ATNO][ 16].a[ 17] =         9.577739000000;     BAS[ATNO][ 16].d[ 17] =         0.012369454457;
  BAS[ATNO][ 16].a[ 18] =         4.133734000000;     BAS[ATNO][ 16].d[ 18] =         0.003507033878;
  BAS[ATNO][ 16].a[ 19] =         1.747518000000;     BAS[ATNO][ 16].d[ 19] =        -0.022220469923;
  BAS[ATNO][ 16].a[ 20] =         0.699560000000;     BAS[ATNO][ 16].d[ 20] =        -0.003287148652;
  BAS[ATNO][ 16].a[ 21] =         0.251608000000;     BAS[ATNO][ 16].d[ 21] =        -0.128931239772;
  BAS[ATNO][ 16].a[ 22] =         0.090490000000;     BAS[ATNO][ 16].d[ 22] =         1.068807509854;

  // Basis function  18 L = d
  InitBFNGauss(BAS[ATNO][ 17]);
  BAS[ATNO][ 17].l  = 2;
  BAS[ATNO][ 17].ng = 23;
  BAS[ATNO][ 17].a[  0] =       205.617700000000;     BAS[ATNO][ 17].d[  0] =        -0.001311612322;
  BAS[ATNO][ 17].a[  1] =        61.449810000000;     BAS[ATNO][ 17].d[  1] =        -0.010420093451;
  BAS[ATNO][ 17].a[  2] =        23.056890000000;     BAS[ATNO][ 17].d[  2] =        -0.043180159371;
  BAS[ATNO][ 17].a[  3] =         9.577739000000;     BAS[ATNO][ 17].d[  3] =        -0.113142523892;
  BAS[ATNO][ 17].a[  4] =         4.133734000000;     BAS[ATNO][ 17].d[  4] =        -0.184507227122;
  BAS[ATNO][ 17].a[  5] =         1.747518000000;     BAS[ATNO][ 17].d[  5] =        -0.202160789723;
  BAS[ATNO][ 17].a[  6] =         0.699560000000;     BAS[ATNO][ 17].d[  6] =        -0.152138628756;
  BAS[ATNO][ 17].a[  7] =       205.617700000000;     BAS[ATNO][ 17].d[  7] =         0.000648206333;
  BAS[ATNO][ 17].a[  8] =        61.449810000000;     BAS[ATNO][ 17].d[  8] =         0.005174580350;
  BAS[ATNO][ 17].a[  9] =        23.056890000000;     BAS[ATNO][ 17].d[  9] =         0.022015490903;
  BAS[ATNO][ 17].a[ 10] =         9.577739000000;     BAS[ATNO][ 17].d[ 10] =         0.060210836555;
  BAS[ATNO][ 17].a[ 11] =         4.133734000000;     BAS[ATNO][ 17].d[ 11] =         0.076365190049;
  BAS[ATNO][ 17].a[ 12] =         1.747518000000;     BAS[ATNO][ 17].d[ 12] =        -0.011539812345;
  BAS[ATNO][ 17].a[ 13] =         0.699560000000;     BAS[ATNO][ 17].d[ 13] =        -0.106527244836;
  BAS[ATNO][ 17].a[ 14] =       205.617700000000;     BAS[ATNO][ 17].d[ 14] =        -0.000423865608;
  BAS[ATNO][ 17].a[ 15] =        61.449810000000;     BAS[ATNO][ 17].d[ 15] =        -0.003606824324;
  BAS[ATNO][ 17].a[ 16] =        23.056890000000;     BAS[ATNO][ 17].d[ 16] =        -0.014985915901;
  BAS[ATNO][ 17].a[ 17] =         9.577739000000;     BAS[ATNO][ 17].d[ 17] =        -0.048115546481;
  BAS[ATNO][ 17].a[ 18] =         4.133734000000;     BAS[ATNO][ 17].d[ 18] =        -0.013641899258;
  BAS[ATNO][ 17].a[ 19] =         1.747518000000;     BAS[ATNO][ 17].d[ 19] =         0.086434697432;
  BAS[ATNO][ 17].a[ 20] =         0.699560000000;     BAS[ATNO][ 17].d[ 20] =         0.012786574728;
  BAS[ATNO][ 17].a[ 21] =         0.251608000000;     BAS[ATNO][ 17].d[ 21] =         1.457384843858;
  BAS[ATNO][ 17].a[ 22] =         0.090490000000;     BAS[ATNO][ 17].d[ 22] =        -0.829224657509;

  // Basis function  19 L = d
  InitBFNGauss(BAS[ATNO][ 18]);
  BAS[ATNO][ 18].l  = 2;
  BAS[ATNO][ 18].ng = 23;
  BAS[ATNO][ 18].a[  0] =       205.617700000000;     BAS[ATNO][ 18].d[  0] =         0.002519482665;
  BAS[ATNO][ 18].a[  1] =        61.449810000000;     BAS[ATNO][ 18].d[  1] =         0.020016009595;
  BAS[ATNO][ 18].a[  2] =        23.056890000000;     BAS[ATNO][ 18].d[  2] =         0.082944983973;
  BAS[ATNO][ 18].a[  3] =         9.577739000000;     BAS[ATNO][ 18].d[  3] =         0.217336039691;
  BAS[ATNO][ 18].a[  4] =         4.133734000000;     BAS[ATNO][ 18].d[  4] =         0.354420854841;
  BAS[ATNO][ 18].a[  5] =         1.747518000000;     BAS[ATNO][ 18].d[  5] =         0.388331671484;
  BAS[ATNO][ 18].a[  6] =         0.699560000000;     BAS[ATNO][ 18].d[  6] =         0.292243852446;
  BAS[ATNO][ 18].a[  7] =       205.617700000000;     BAS[ATNO][ 18].d[  7] =        -0.007963577402;
  BAS[ATNO][ 18].a[  8] =        61.449810000000;     BAS[ATNO][ 18].d[  8] =        -0.063572614234;
  BAS[ATNO][ 18].a[  9] =        23.056890000000;     BAS[ATNO][ 18].d[  9] =        -0.270472621082;
  BAS[ATNO][ 18].a[ 10] =         9.577739000000;     BAS[ATNO][ 18].d[ 10] =        -0.739723808684;
  BAS[ATNO][ 18].a[ 11] =         4.133734000000;     BAS[ATNO][ 18].d[ 11] =        -0.938189078014;
  BAS[ATNO][ 18].a[ 12] =         1.747518000000;     BAS[ATNO][ 18].d[ 12] =         0.141773049967;
  BAS[ATNO][ 18].a[ 13] =         0.699560000000;     BAS[ATNO][ 18].d[ 13] =         1.308746793557;
  BAS[ATNO][ 18].a[ 14] =       205.617700000000;     BAS[ATNO][ 18].d[ 14] =         0.003601621671;
  BAS[ATNO][ 18].a[ 15] =        61.449810000000;     BAS[ATNO][ 18].d[ 15] =         0.030647489215;
  BAS[ATNO][ 18].a[ 16] =        23.056890000000;     BAS[ATNO][ 18].d[ 16] =         0.127336586061;
  BAS[ATNO][ 18].a[ 17] =         9.577739000000;     BAS[ATNO][ 18].d[ 17] =         0.408841839629;
  BAS[ATNO][ 18].a[ 18] =         4.133734000000;     BAS[ATNO][ 18].d[ 18] =         0.115916363764;
  BAS[ATNO][ 18].a[ 19] =         1.747518000000;     BAS[ATNO][ 18].d[ 19] =        -0.734442883650;
  BAS[ATNO][ 18].a[ 20] =         0.699560000000;     BAS[ATNO][ 18].d[ 20] =        -0.108648599394;
  BAS[ATNO][ 18].a[ 21] =         0.251608000000;     BAS[ATNO][ 18].d[ 21] =        -1.102126945233;
  BAS[ATNO][ 18].a[ 22] =         0.090490000000;     BAS[ATNO][ 18].d[ 22] =         0.395475610882;

  // Basis function  20 L = d
  InitBFNGauss(BAS[ATNO][ 19]);
  BAS[ATNO][ 19].l  = 2;
  BAS[ATNO][ 19].ng = 23;
  BAS[ATNO][ 19].a[  0] =       205.617700000000;     BAS[ATNO][ 19].d[  0] =        -0.003141163254;
  BAS[ATNO][ 19].a[  1] =        61.449810000000;     BAS[ATNO][ 19].d[  1] =        -0.024954945991;
  BAS[ATNO][ 19].a[  2] =        23.056890000000;     BAS[ATNO][ 19].d[  2] =        -0.103411600870;
  BAS[ATNO][ 19].a[  3] =         9.577739000000;     BAS[ATNO][ 19].d[  3] =        -0.270963555774;
  BAS[ATNO][ 19].a[  4] =         4.133734000000;     BAS[ATNO][ 19].d[  4] =        -0.441873953372;
  BAS[ATNO][ 19].a[  5] =         1.747518000000;     BAS[ATNO][ 19].d[  5] =        -0.484152240351;
  BAS[ATNO][ 19].a[  6] =         0.699560000000;     BAS[ATNO][ 19].d[  6] =        -0.364354819038;
  BAS[ATNO][ 19].a[  7] =       205.617700000000;     BAS[ATNO][ 19].d[  7] =         0.006695018894;
  BAS[ATNO][ 19].a[  8] =        61.449810000000;     BAS[ATNO][ 19].d[  8] =         0.053445811092;
  BAS[ATNO][ 19].a[  9] =        23.056890000000;     BAS[ATNO][ 19].d[  9] =         0.227387669771;
  BAS[ATNO][ 19].a[ 10] =         9.577739000000;     BAS[ATNO][ 19].d[ 10] =         0.621889463185;
  BAS[ATNO][ 19].a[ 11] =         4.133734000000;     BAS[ATNO][ 19].d[ 11] =         0.788740196332;
  BAS[ATNO][ 19].a[ 12] =         1.747518000000;     BAS[ATNO][ 19].d[ 12] =        -0.119189304039;
  BAS[ATNO][ 19].a[ 13] =         0.699560000000;     BAS[ATNO][ 19].d[ 13] =        -1.100269899840;
  BAS[ATNO][ 19].a[ 14] =       205.617700000000;     BAS[ATNO][ 19].d[ 14] =        -0.009318511023;
  BAS[ATNO][ 19].a[ 15] =        61.449810000000;     BAS[ATNO][ 19].d[ 15] =        -0.079294549013;
  BAS[ATNO][ 19].a[ 16] =        23.056890000000;     BAS[ATNO][ 19].d[ 16] =        -0.329459196274;
  BAS[ATNO][ 19].a[ 17] =         9.577739000000;     BAS[ATNO][ 19].d[ 17] =        -1.057800495945;
  BAS[ATNO][ 19].a[ 18] =         4.133734000000;     BAS[ATNO][ 19].d[ 18] =        -0.299911543274;
  BAS[ATNO][ 19].a[ 19] =         1.747518000000;     BAS[ATNO][ 19].d[ 19] =         1.900231266136;
  BAS[ATNO][ 19].a[ 20] =         0.699560000000;     BAS[ATNO][ 19].d[ 20] =         0.281107585335;
  BAS[ATNO][ 19].a[ 21] =         0.251608000000;     BAS[ATNO][ 19].d[ 21] =         0.580186778561;
  BAS[ATNO][ 19].a[ 22] =         0.090490000000;     BAS[ATNO][ 19].d[ 22] =        -0.196696284458;

  // Basis function  21 L = f
  InitBFNGauss(BAS[ATNO][ 20]);
  BAS[ATNO][ 20].l  = 3;
  BAS[ATNO][ 20].ng = 3;
  BAS[ATNO][ 20].a[  0] =         5.792200000000;     BAS[ATNO][ 20].d[  0] =         0.028556132596;
  BAS[ATNO][ 20].a[  1] =         1.485100000000;     BAS[ATNO][ 20].d[  1] =        -0.071195649339;
  BAS[ATNO][ 20].a[  2] =         0.548610000000;     BAS[ATNO][ 20].d[  2] =         1.038114516596;

  // Basis function  22 L = f
  InitBFNGauss(BAS[ATNO][ 21]);
  BAS[ATNO][ 21].l  = 3;
  BAS[ATNO][ 21].ng = 3;
  BAS[ATNO][ 21].a[  0] =         5.792200000000;     BAS[ATNO][ 21].d[  0] =         0.070166399146;
  BAS[ATNO][ 21].a[  1] =         1.485100000000;     BAS[ATNO][ 21].d[  1] =         1.193495174400;
  BAS[ATNO][ 21].a[  2] =         0.548610000000;     BAS[ATNO][ 21].d[  2] =        -0.659191267833;

  // Basis function  23 L = f
  InitBFNGauss(BAS[ATNO][ 22]);
  BAS[ATNO][ 22].l  = 3;
  BAS[ATNO][ 22].ng = 3;
  BAS[ATNO][ 22].a[  0] =         5.792200000000;     BAS[ATNO][ 22].d[  0] =         1.099267216609;
  BAS[ATNO][ 22].a[  1] =         1.485100000000;     BAS[ATNO][ 22].d[  1] =        -0.637040693071;
  BAS[ATNO][ 22].a[  2] =         0.548610000000;     BAS[ATNO][ 22].d[  2] =         0.261500070231;

  // Basis function  24 L = g
  InitBFNGauss(BAS[ATNO][ 23]);
  BAS[ATNO][ 23].l  = 4;
  BAS[ATNO][ 23].ng = 2;
  BAS[ATNO][ 23].a[  0] =         4.114400000000;     BAS[ATNO][ 23].d[  0] =        -0.167640948409;
  BAS[ATNO][ 23].a[  1] =         1.829330000000;     BAS[ATNO][ 23].d[  1] =         1.099730335881;

  // Basis function  25 L = g
  InitBFNGauss(BAS[ATNO][ 24]);
  BAS[ATNO][ 24].l  = 4;
  BAS[ATNO][ 24].ng = 2;
  BAS[ATNO][ 24].a[  0] =         4.114400000000;     BAS[ATNO][ 24].d[  0] =         1.296567218034;
  BAS[ATNO][ 24].a[  1] =         1.829330000000;     BAS[ATNO][ 24].d[  1] =        -0.706953482776;

-------
TIMINGS
-------

Total SCF time: 0 days 0 hours 0 min 1 sec 

Total time                  ....       1.472 sec
Sum of individual times     ....       1.344 sec  ( 91.3%)

Fock matrix formation       ....       1.089 sec  ( 74.0%)
  Split-RI-J                ....       0.849 sec  ( 78.0% of F)
  XC integration            ....       0.212 sec  ( 19.5% of F)
    Basis function eval.    ....       0.032 sec  ( 15.3% of XC)
    Density eval.           ....       0.014 sec  (  6.8% of XC)
    XC-Functional eval.     ....       0.009 sec  (  4.2% of XC)
    XC-Potential eval.      ....       0.029 sec  ( 13.9% of XC)
Diagonalization             ....       0.012 sec  (  0.8%)
Density matrix formation    ....       0.002 sec  (  0.2%)
Population analysis         ....       0.002 sec  (  0.2%)
Initial guess               ....       0.106 sec  (  7.2%)
Orbital Transformation      ....       0.000 sec  (  0.0%)
Orbital Orthonormalization  ....       0.000 sec  (  0.0%)
DIIS solution               ....       0.008 sec  (  0.5%)
Grid generation             ....       0.124 sec  (  8.5%)


-------------------------------------------------------------------------------
                          DFT DISPERSION CORRECTION                            
                                                                               
                              DFTD3 V3.1  Rev 1                                
                          USING Becke-Johnson damping                          
-------------------------------------------------------------------------------
The TPSS functional is recognized
Active option DFTDOPT                   ...         4   

molecular C6(AA) [au] = 340.521234 


            DFT-D V3
 parameters
 s6 scaling factor         :     1.0000 
 a1 scaling factor         :     0.4535 
 s8 scaling factor         :     1.9435 
 a2 scaling factor         :     4.4752 
 ad hoc parameters k1-k3   :    16.0000     1.3333    -4.0000 

 Edisp/kcal,au: -0.000000000000  -0.000000000000 
 E6   /kcal   :  -0.000000000 
 E8   /kcal   :  -0.000000000 
 % E8         :          -nan 

-------------------------   ----------------
Dispersion correction            0.000000000
-------------------------   ----------------


-------------------------   --------------------
FINAL SINGLE POINT ENERGY     -1779.446585745657
-------------------------   --------------------


                            ***************************************
                            *     ORCA property calculations      *
                            ***************************************

                                    ---------------------
                                    Active property flags
                                    ---------------------
   (+) Dipole Moment


------------------------------------------------------------------------------
                       ORCA ELECTRIC PROPERTIES CALCULATION
------------------------------------------------------------------------------

Dipole Moment Calculation                       ... on
Quadrupole Moment Calculation                   ... off
Polarizability Calculation                      ... off
GBWName                                         ... 70_Zn.gbw
Electron density file                           ... 70_Zn.scfp
The origin for moment calculation is the CENTER OF MASS  = ( 0.000000,  0.000000  0.000000)

-------------
DIPOLE MOMENT
-------------
                                X             Y             Z
Electronic contribution:      0.00000       0.00000       0.00000
Nuclear contribution   :      0.00000       0.00000       0.00000
                        -----------------------------------------
Total Dipole Moment    :      0.00000       0.00000       0.00000
                        -----------------------------------------
Magnitude (a.u.)       :      0.00000
Magnitude (Debye)      :      0.00000



--------------------
Rotational spectrum 
--------------------
 
Rotational constants in cm-1:     0.000000     0.000000     0.000000 
Rotational constants in MHz :     0.000000     0.000000     0.000000 

 Dipole components along the rotational axes: 
x,y,z [a.u.] :     0.000000     0.000000     0.000000 
x,y,z [Debye]:     0.000000     0.000000     0.000000 

 

Timings for individual modules:

Sum of individual times         ...        4.947 sec (=   0.082 min)
GTO integral calculation        ...        3.152 sec (=   0.053 min)  63.7 %
SCF iterations                  ...        1.795 sec (=   0.030 min)  36.3 %
                             ****ORCA TERMINATED NORMALLY****
TOTAL RUN TIME: 0 days 0 hours 0 minutes 5 seconds 489 msec
