
                                 *****************
                                 * O   R   C   A *
                                 *****************

           --- An Ab Initio, DFT and Semiempirical electronic structure package ---

                  #######################################################
                  #                        -***-                        #
                  #          Department of theory and spectroscopy      #
                  #               Directorship: Frank Neese             #
                  #        Max Planck Institute fuer Kohlenforschung    #
                  #                Kaiser Wilhelm Platz 1               #
                  #                 D-45470 Muelheim/Ruhr               #
                  #                      Germany                        #
                  #                                                     #
                  #                  All rights reserved                #
                  #                        -***-                        #
                  #######################################################


                         Program Version 4.2.0 -  RELEASE  -


 With contributions from (in alphabetic order):
   Daniel Aravena         : Magnetic Suceptibility
   Michael Atanasov       : Ab Initio Ligand Field Theory (pilot matlab implementation)
   Alexander A. Auer      : GIAO ZORA, VPT2
   Ute Becker             : Parallelization
   Giovanni Bistoni       : ED, misc. LED, open-shell LED, HFLED
   Martin Brehm           : Molecular dynamics
   Dmytro Bykov           : SCF Hessian
   Vijay G. Chilkuri      : MRCI spin determinant printing, contributions to CSF-ICE
   Dipayan Datta          : RHF DLPNO-CCSD density
   Achintya Kumar Dutta   : EOM-CC, STEOM-CC
   Dmitry Ganyushin       : Spin-Orbit,Spin-Spin,Magnetic field MRCI
   Miquel Garcia          : C-PCM Hessian, Gaussian charge scheme
   Yang Guo               : DLPNO-NEVPT2, CIM, IAO-localization
   Andreas Hansen         : Spin unrestricted coupled pair/coupled cluster methods
   Benjamin Helmich-Paris : CASSCF linear response (MC-RPA)
   Lee Huntington         : MR-EOM, pCC
   Robert Izsak           : Overlap fitted RIJCOSX, COSX-SCS-MP3, EOM
   Christian Kollmar      : KDIIS, OOCD, Brueckner-CCSD(T), CCSD density
   Simone Kossmann        : Meta GGA functionals, TD-DFT gradient, OOMP2, MP2 Hessian
   Martin Krupicka        : AUTO-CI
   Lucas Lang             : DCDCAS
   Dagmar Lenk            : GEPOL surface, SMD
   Dimitrios Liakos       : Extrapolation schemes; Compound Job, initial MDCI parallelization
   Dimitrios Manganas     : Further ROCIS development; embedding schemes
   Dimitrios Pantazis     : SARC Basis sets
   Taras Petrenko         : DFT Hessian,TD-DFT gradient, ASA, ECA, R-Raman, ABS, FL, XAS/XES, NRVS
   Peter Pinski           : DLPNO-MP2, DLPNO-MP2 Gradient
   Christoph Reimann      : Effective Core Potentials
   Marius Retegan         : Local ZFS, SOC
   Christoph Riplinger    : Optimizer, TS searches, QM/MM, DLPNO-CCSD(T), (RO)-DLPNO pert. Triples
   Tobias Risthaus        : Range-separated hybrids, TD-DFT gradient, RPA, STAB
   Michael Roemelt        : Original ROCIS implementation
   Masaaki Saitow         : Open-shell DLPNO-CCSD energy and density
   Barbara Sandhoefer     : DKH picture change effects
   Avijit Sen             : IP-ROCIS
   Kantharuban Sivalingam : CASSCF convergence, NEVPT2, FIC-MRCI
   Bernardo de Souza      : ESD, SOC TD-DFT
   Georgi Stoychev        : AutoAux, RI-MP2 NMR
   Willem Van den Heuvel  : Paramagnetic NMR
   Boris Wezisla          : Elementary symmetry handling
   Frank Wennmohs         : Technical directorship


 We gratefully acknowledge several colleagues who have allowed us to
 interface, adapt or use parts of their codes:
   Stefan Grimme, W. Hujo, H. Kruse,             : VdW corrections, initial TS optimization,
                  C. Bannwarth                     DFT functionals, gCP, sTDA/sTD-DF
   Ed Valeev, F. Pavosevic, A. Kumar             : LibInt (2-el integral package), F12 methods
   Garnet Chan, S. Sharma, J. Yang, R. Olivares  : DMRG
   Ulf Ekstrom                                   : XCFun DFT Library
   Mihaly Kallay                                 : mrcc  (arbitrary order and MRCC methods)
   Andreas Klamt, Michael Diedenhofen            : otool_cosmo (COSMO solvation model)
   Jiri Pittner, Ondrej Demel                    : Mk-CCSD
   Frank Weinhold                                : gennbo (NPA and NBO analysis)
   Christopher J. Cramer and Donald G. Truhlar   : smd solvation model
   Lars Goerigk                                  : TD-DFT with DH, B97 family of functionals
   V. Asgeirsson, H. Jonsson                     : NEB implementation
   FAccTs GmbH                                   : IRC, NEB, NEB-TS, Multilevel, MM, QM/MM, CI optimization
   S Lehtola, MJT Oliveira, MAL Marques          : LibXC Library


 Your calculation uses the libint2 library for the computation of 2-el integrals
 For citations please refer to: http://libint.valeyev.net

 Your ORCA version has been built with support for libXC version: 4.2.3
 For citations please refer to: https://tddft.org/programs/libxc/

 This ORCA versions uses:
   CBLAS   interface :  Fast vector & matrix operations
   LAPACKE interface :  Fast linear algebra routines
   SCALAPACK package :  Parallel linear algebra routines


Your calculation utilizes the atom-pairwise dispersion correction
with the Becke-Johnson damping scheme (D3BJ)
Cite in your paper:
S.Grimme, S.Ehrlich, L.Goerigk, J Comput Chem, (2011), 32, 1456–1465 
S.Grimme, J.Antony, S.Ehrlich and H.Krieg, J.Chem.Phys., 132, (2010), 154104 
   

----- Orbital basis set information -----
Your calculation utilizes the basis: aug-cc-pVTZ 
    H, B-Ne : Obtained from the ccRepo (grant-hill.group.shef.ac.uk/ccrepo) Feb. 2017
              R. A. Kendall, T. H. Dunning, Jr., R. J. Harrison, J. Chem. Phys. 96, 6796 (1992)
         He : Obtained from the ccRepo (grant-hill.group.shef.ac.uk/ccrepo) Feb. 2017
              D. E. Woon, T. H. Dunning, Jr., J. Chem. Phys. 100, 2975 (1994)
  Li-Be, Na : Obtained from the ccRepo (grant-hill.group.shef.ac.uk/ccrepo) Feb. 2017
              B. P. Prascher, D. E. Woon, K. A. Peterson, T. H. Dunning, Jr., A. K. Wilson, Theor. Chem. Acc. 128, 69 (2011)
         Mg : Obtained from the Peterson Research Group Website (tyr0.chem.wsu.edu/~kipeters) Feb. 2017
              B. P. Prascher, D. E. Woon, K. A. Peterson, T. H. Dunning, Jr., A. K. Wilson, Theor. Chem. Acc. 128, 69 (2011)
      Al-Ar : Obtained from the ccRepo (grant-hill.group.shef.ac.uk/ccrepo) Feb. 2017
              D. E. Woon, T. H. Dunning, Jr., J. Chem. Phys. 98, 1358 (1993)
      Sc-Zn : Obtained from the ccRepo (grant-hill.group.shef.ac.uk/ccrepo) Feb. 2017
              N. B. Balabanov, K. A. Peterson, J. Chem. Phys. 123, 064107 (2005)
              N. B. Balabanov, K. A. Peterson, J. Chem. Phys. 125, 074110 (2006)
      Ga-Kr : Obtained from the ccRepo (grant-hill.group.shef.ac.uk/ccrepo) Feb. 2017
              A. K. Wilson, D. E. Woon, K. A. Peterson, T. H. Dunning, Jr., J. Chem. Phys. 110, 7667 (1999)
     Ag, Au : Obtained from the Peterson Research Group Website (tyr0.chem.wsu.edu/~kipeters) Feb. 2017
              K. A. Peterson, C. Puzzarini, Theor. Chem. Acc. 114, 283 (2005)

----- AuxJ basis set information -----
Your calculation utilizes the auxiliary basis: def2/J
   F. Weigend, Phys. Chem. Chem. Phys. 8, 1057 (2006).

================================================================================
                                        WARNINGS
                       Please study these warnings very carefully!
================================================================================


WARNING: your system is open-shell and RHF/RKS was chosen
  ===> : WILL SWITCH to UHF/UKS


INFO   : the flag for use of LIBINT has been found!

================================================================================
                                       INPUT FILE
================================================================================
NAME = 76_S.in
|  1> #
|  2> # 76_S tpss/aug-cc-pvtz
|  3> #
|  4> ! tpss d3bj aug-cc-pvtz def2/j grid4 nofinalgrid
|  5> 
|  6> *xyz 0 3
|  7> S 0.0 0.0 0.0
|  8> *
|  9> 
| 10> %pal
| 11> nprocs 24
| 12> end
| 13> 
| 14> 
| 15>                          ****END OF INPUT****
================================================================================

                       ****************************
                       * Single Point Calculation *
                       ****************************

---------------------------------
CARTESIAN COORDINATES (ANGSTROEM)
---------------------------------
  S      0.000000    0.000000    0.000000

----------------------------
CARTESIAN COORDINATES (A.U.)
----------------------------
  NO LB      ZA    FRAG     MASS         X           Y           Z
   0 S    16.0000    0    32.060    0.000000    0.000000    0.000000

--------------------------------
INTERNAL COORDINATES (ANGSTROEM)
--------------------------------
 S      0   0   0     0.000000000000     0.00000000     0.00000000

---------------------------
INTERNAL COORDINATES (A.U.)
---------------------------
 S      0   0   0     0.000000000000     0.00000000     0.00000000

---------------------
BASIS SET INFORMATION
---------------------
There are 1 groups of distinct atoms

 Group   1 Type S   : 42s17p3d2f contracted to 6s5p3d2f pattern {131313111/77111/111/11}

Atom   0S    basis set group =>   1
---------------------------------
AUXILIARY/J BASIS SET INFORMATION
---------------------------------
There are 1 groups of distinct atoms

 Group   1 Type S   : 14s5p5d2f1g contracted to 8s4p3d1f1g pattern {71111111/2111/311/2/1}

Atom   0S    basis set group =>   1


           ************************************************************
           *        Program running with 24 parallel MPI-processes    *
           *              working on a common directory               *
           ************************************************************
------------------------------------------------------------------------------
                           ORCA GTO INTEGRAL CALCULATION
                           -- RI-GTO INTEGRALS CHOSEN --
------------------------------------------------------------------------------

                         BASIS SET STATISTICS AND STARTUP INFO

Gaussian basis set:
 # of primitive gaussian shells          ...   64
 # of primitive gaussian functions       ...  122
 # of contracted shells                  ...   16
 # of contracted basis functions         ...   50
 Highest angular momentum                ...    3
 Maximum contraction depth               ...   13
Auxiliary gaussian basis set:
 # of primitive gaussian shells          ...   27
 # of primitive gaussian functions       ...   77
 # of contracted shells                  ...   17
 # of contracted aux-basis functions     ...   51
 Highest angular momentum                ...    4
 Maximum contraction depth               ...    7
Ratio of auxiliary to basis functions    ...  1.02
Integral package used                  ... LIBINT
 One Electron integrals                  ... done
 Ordering auxiliary basis shells         ... done
 Integral threshhold             Thresh  ...  1.000e-10
 Primitive cut-off               TCut    ...  1.000e-11
 Pre-screening matrix                    ... done
 Shell pair data                         ... 
 Ordering of the shell pairs             ... done (   0.000 sec) 136 of 136 pairs
 Determination of significant pairs      ... done (   0.000 sec)
 Creation of shell pair data             ... done (   0.000 sec)
 Storage of shell pair data              ... done (   0.011 sec)
 Shell pair data done in (   0.011 sec)
 Computing two index integrals           ... done
 Cholesky decomposition of the V-matrix  ... done


Timings:
 Total evaluation time                   ...   0.285 sec (  0.005 min)
 One electron matrix time                ...   0.016 sec (  0.000 min) =  5.5%
 Schwartz matrix evaluation time         ...   0.237 sec (  0.004 min) = 83.3%
 Two index repulsion integral time       ...   0.000 sec (  0.000 min) =  0.1%
 Cholesky decomposition of V             ...   0.001 sec (  0.000 min) =  0.2%
 Three index repulsion integral time     ...   0.000 sec (  0.000 min) =  0.0%



           ************************************************************
           *        Program running with 24 parallel MPI-processes    *
           *              working on a common directory               *
           ************************************************************
-------------------------------------------------------------------------------
                                 ORCA SCF
-------------------------------------------------------------------------------

------------
SCF SETTINGS
------------
Hamiltonian:
 Density Functional     Method          .... DFT(GTOs)
 Exchange Functional    Exchange        .... TPSS
 Correlation Functional Correlation     .... TPSS
 LDA part of GGA corr.  LDAOpt          .... PW91-LDA
 Gradients option       PostSCFGGA      .... off
   Density functional embedding theory  .... OFF
   NL short-range parameter             ....  5.000000
 RI-approximation to the Coulomb term is turned on
   Number of auxiliary basis functions  .... 51


General Settings:
 Integral files         IntName         .... 76_S
 Hartree-Fock type      HFTyp           .... UHF
 Total Charge           Charge          ....    0
 Multiplicity           Mult            ....    3
 Number of Electrons    NEL             ....   16
 Basis Dimension        Dim             ....   50
 Nuclear Repulsion      ENuc            ....      0.0000000000 Eh

Convergence Acceleration:
 DIIS                   CNVDIIS         .... on
   Start iteration      DIISMaxIt       ....    12
   Startup error        DIISStart       ....  0.200000
   # of expansion vecs  DIISMaxEq       ....     5
   Bias factor          DIISBfac        ....   1.050
   Max. coefficient     DIISMaxC        ....  10.000
 Newton-Raphson         CNVNR           .... off
 SOSCF                  CNVSOSCF        .... off
 Level Shifting         CNVShift        .... on
   Level shift para.    LevelShift      ....    0.2500
   Turn off err/grad.   ShiftErr        ....    0.0010
 Zerner damping         CNVZerner       .... off
 Static damping         CNVDamp         .... on
   Fraction old density DampFac         ....    0.7000
   Max. Damping (<1)    DampMax         ....    0.9800
   Min. Damping (>=0)   DampMin         ....    0.0000
   Turn off err/grad.   DampErr         ....    0.1000
 Fernandez-Rico         CNVRico         .... off

SCF Procedure:
 Maximum # iterations   MaxIter         ....   125
 SCF integral mode      SCFMode         .... Direct
   Integral package                     .... LIBINT
 Reset frequency        DirectResetFreq ....    20
 Integral Threshold     Thresh          ....  1.000e-10 Eh
 Primitive CutOff       TCut            ....  1.000e-11 Eh

Convergence Tolerance:
 Convergence Check Mode ConvCheckMode   .... Total+1el-Energy
 Convergence forced     ConvForced      .... 0
 Energy Change          TolE            ....  1.000e-06 Eh
 1-El. energy change                    ....  1.000e-03 Eh
 DIIS Error             TolErr          ....  1.000e-06


Diagonalization of the overlap matrix:
Smallest eigenvalue                        ... 1.216e-02
Time for diagonalization                   ...    0.002 sec
Threshold for overlap eigenvalues          ... 1.000e-08
Number of eigenvalues below threshold      ... 0
Time for construction of square roots      ...    0.001 sec
Total time needed                          ...    0.003 sec

-------------------
DFT GRID GENERATION
-------------------

General Integration Accuracy     IntAcc      ...  4.670
Radial Grid Type                 RadialGrid  ... Gauss-Chebyshev
Angular Grid (max. acc.)         AngularGrid ... Lebedev-302
Angular grid pruning method      GridPruning ... 3 (G Style)
Weight generation scheme         WeightScheme... Becke
Basis function cutoff            BFCut       ...    1.0000e-10
Integration weight cutoff        WCut        ...    1.0000e-14
Grids for H and He will be reduced by one unit

# of grid points (after initial pruning)     ...   6846 (   0.0 sec)
# of grid points (after weights+screening)   ...   6846 (   0.0 sec)
Grid point division into batches done        ...    0.0 sec
Reduced shell lists constructed in    0.0 sec

Total number of grid points                  ...     6846
Total number of batches                      ...      107
Average number of points per batch           ...       63
Average number of grid points per atom       ...     6846
Average number of shells per batch           ...     4.17 (26.04%)
Average number of basis functions per batch  ...    10.83 (21.67%)
Average number of large shells per batch     ...     3.33 (80.00%)
Average number of large basis fcns per batch ...    10.00 (92.31%)
Maximum spatial batch extension              ...  17.78, 17.78, 17.78 au
Average spatial batch extension              ...   0.72,  0.72,  0.74 au

Time for grid setup =    0.062 sec

------------------------------
INITIAL GUESS: MODEL POTENTIAL
------------------------------
Loading Hartree-Fock densities                     ... done
Calculating cut-offs                               ... done
Setting up the integral package                    ... done
Initializing the effective Hamiltonian             ... done
Starting the Coulomb interaction                   ... done (   0.0 sec)
Reading the grid                                   ... done
Mapping shells                                     ... done
Starting the XC term evaluation                    ... done (   0.0 sec)
  promolecular density results
     # of electrons  =     16.000000228
     EX              =    -24.807173065
     EC              =     -0.594926646
     EX+EC           =    -25.402099711
Transforming the Hamiltonian                       ... done (   0.0 sec)
Diagonalizing the Hamiltonian                      ... done (   0.0 sec)
Back transforming the eigenvectors                 ... done (   0.0 sec)
Now organizing SCF variables                       ... done
                      ------------------
                      INITIAL GUESS DONE (   0.2 sec)
                      ------------------
--------------
SCF ITERATIONS
--------------
ITER       Energy         Delta-E        Max-DP      RMS-DP      [F,P]     Damp
               ***  Starting incremental Fock matrix formation  ***
  0   -398.1371758843   0.000000000000 0.00823757  0.00033192  0.0242567 0.7000
  1   -398.1386141098  -0.001438225427 0.00802386  0.00028778  0.0172390 0.7000
                               ***Turning on DIIS***
  2   -398.1397092386  -0.001095128823 0.02115441  0.00073239  0.0122853 0.0000
  3   -398.1424131213  -0.002703882696 0.00258929  0.00008343  0.0034471 0.0000
  4   -398.1424667144  -0.000053593065 0.00124788  0.00004828  0.0008377 0.0000
  5   -398.1424752609  -0.000008546572 0.00033188  0.00001172  0.0004249 0.0000
  6   -398.1424757507  -0.000000489783 0.00004157  0.00000209  0.0000816 0.0000
                 **** Energy Check signals convergence ****

               *****************************************************
               *                     SUCCESS                       *
               *           SCF CONVERGED AFTER   7 CYCLES          *
               *****************************************************


----------------
TOTAL SCF ENERGY
----------------

Total Energy       :         -398.14247574 Eh          -10834.00756 eV

Components:
Nuclear Repulsion  :            0.00000000 Eh               0.00000 eV
Electronic Energy  :         -398.14247574 Eh          -10834.00756 eV
One Electron Energy:         -549.37828429 Eh          -14949.34313 eV
Two Electron Energy:          151.23580855 Eh            4115.33557 eV

Virial components:
Potential Energy   :         -795.09042556 Eh          -21635.51041 eV
Kinetic Energy     :          396.94794982 Eh           10801.50285 eV
Virial Ratio       :            2.00300928


DFT components:
N(Alpha)           :        8.999999875171 electrons
N(Beta)            :        6.999999893764 electrons
N(Total)           :       15.999999768936 electrons
E(X)               :      -25.044071823938 Eh       
E(C)               :       -0.588134513018 Eh       
E(XC)              :      -25.632206336956 Eh       
DFET-embed. en.    :        0.000000000000 Eh       

---------------
SCF CONVERGENCE
---------------

  Last Energy change         ...    1.1910e-08  Tolerance :   1.0000e-06
  Last MAX-Density change    ...    1.0017e-05  Tolerance :   1.0000e-05
  Last RMS-Density change    ...    3.1592e-07  Tolerance :   1.0000e-06
  Last DIIS Error            ...    1.3673e-05  Tolerance :   1.0000e-06

             **** THE GBW FILE WAS UPDATED (76_S.gbw) ****
             **** DENSITY FILE WAS UPDATED (76_S.scfp) ****
             **** ENERGY FILE WAS UPDATED (76_S.en.tmp) ****
----------------------
UHF SPIN CONTAMINATION
----------------------

Warning: in a DFT calculation there is little theoretical justification to 
         calculate <S**2> as in Hartree-Fock theory. We will do it anyways
         but you should keep in mind that the values have only limited relevance

Expectation value of <S**2>     :     2.005477
Ideal value S*(S+1) for S=1.0   :     2.000000
Deviation                       :     0.005477

             **** THE GBW FILE WAS UPDATED (76_S.gbw) ****
             **** DENSITY FILE WAS UPDATED (76_S.scfp) ****
----------------
ORBITAL ENERGIES
----------------
                 SPIN UP ORBITALS
  NO   OCC          E(Eh)            E(eV) 
   0   1.0000     -88.446431     -2406.7498 
   1   1.0000      -7.799288      -212.2294 
   2   1.0000      -5.785394      -157.4286 
   3   1.0000      -5.785394      -157.4286 
   4   1.0000      -5.766024      -156.9015 
   5   1.0000      -0.673748       -18.3336 
   6   1.0000      -0.304964        -8.2985 
   7   1.0000      -0.304964        -8.2985 
   8   1.0000      -0.254179        -6.9166 
   9   0.0000       0.017456         0.4750 
  10   0.0000       0.041287         1.1235 
  11   0.0000       0.041288         1.1235 
  12   0.0000       0.047894         1.3033 
  13   0.0000       0.125275         3.4089 
  14   0.0000       0.125275         3.4089 
  15   0.0000       0.141311         3.8453 
  16   0.0000       0.141311         3.8453 
  17   0.0000       0.147730         4.0199 
  18   0.0000       0.372935        10.1481 
  19   0.0000       0.372936        10.1481 
  20   0.0000       0.394610        10.7379 
  21   0.0000       0.469290        12.7700 
  22   0.0000       0.469290        12.7700 
  23   0.0000       0.497327        13.5330 
  24   0.0000       0.497327        13.5330 
  25   0.0000       0.508741        13.8435 
  26   0.0000       0.545948        14.8560 
  27   0.0000       0.648850        17.6561 
  28   0.0000       0.648850        17.6561 
  29   0.0000       0.661292        17.9947 
  30   0.0000       0.661292        17.9947 
  31   0.0000       0.670202        18.2371 
  32   0.0000       0.670202        18.2371 
  33   0.0000       0.673007        18.3134 
  34   0.0000       1.633933        44.4616 
  35   0.0000       1.633933        44.4616 
  36   0.0000       1.663327        45.2614 
  37   0.0000       1.663327        45.2614 
  38   0.0000       1.674732        45.5718 
  39   0.0000       1.940150        52.7942 
  40   0.0000       1.940150        52.7942 
  41   0.0000       1.971216        53.6395 
  42   0.0000       1.971216        53.6395 
  43   0.0000       1.976504        53.7834 
  44   0.0000       1.999103        54.3983 
  45   0.0000       1.999103        54.3983 
  46   0.0000       2.017327        54.8943 
  47   0.0000       2.017327        54.8943 
  48   0.0000       2.023886        55.0727 
  49   0.0000       3.662231        99.6544 

                 SPIN DOWN ORBITALS
  NO   OCC          E(Eh)            E(eV) 
   0   1.0000     -88.436724     -2406.4856 
   1   1.0000      -7.789978      -211.9761 
   2   1.0000      -5.768252      -156.9621 
   3   1.0000      -5.768252      -156.9621 
   4   1.0000      -5.760473      -156.7504 
   5   1.0000      -0.586048       -15.9472 
   6   1.0000      -0.232681        -6.3316 
   7   0.0000      -0.200796        -5.4639 
   8   0.0000      -0.200796        -5.4639 
   9   0.0000       0.034394         0.9359 
  10   0.0000       0.051379         1.3981 
  11   0.0000       0.060092         1.6352 
  12   0.0000       0.060095         1.6353 
  13   0.0000       0.163166         4.4400 
  14   0.0000       0.163166         4.4400 
  15   0.0000       0.164308         4.4711 
  16   0.0000       0.170705         4.6451 
  17   0.0000       0.170706         4.6451 
  18   0.0000       0.405192        11.0258 
  19   0.0000       0.412410        11.2222 
  20   0.0000       0.412411        11.2223 
  21   0.0000       0.541249        14.7281 
  22   0.0000       0.541249        14.7281 
  23   0.0000       0.545179        14.8351 
  24   0.0000       0.557109        15.1597 
  25   0.0000       0.557111        15.1597 
  26   0.0000       0.588730        16.0201 
  27   0.0000       0.687902        18.7188 
  28   0.0000       0.687902        18.7188 
  29   0.0000       0.690133        18.7795 
  30   0.0000       0.690134        18.7795 
  31   0.0000       0.690170        18.7805 
  32   0.0000       0.693533        18.8720 
  33   0.0000       0.693533        18.8720 
  34   0.0000       1.718179        46.7540 
  35   0.0000       1.718179        46.7540 
  36   0.0000       1.719899        46.8008 
  37   0.0000       1.719899        46.8008 
  38   0.0000       1.728358        47.0310 
  39   0.0000       1.997982        54.3679 
  40   0.0000       1.997982        54.3679 
  41   0.0000       2.021127        54.9977 
  42   0.0000       2.065286        56.1993 
  43   0.0000       2.065286        56.1993 
  44   0.0000       2.065715        56.2110 
  45   0.0000       2.065715        56.2110 
  46   0.0000       2.077884        56.5421 
  47   0.0000       2.077884        56.5421 
  48   0.0000       2.079473        56.5853 
  49   0.0000       3.704149       100.7950 

                    ********************************
                    * MULLIKEN POPULATION ANALYSIS *
                    ********************************

--------------------------------------------
MULLIKEN ATOMIC CHARGES AND SPIN POPULATIONS
--------------------------------------------
   0 S :   -0.000000    2.000000
Sum of atomic charges         :   -0.0000000
Sum of atomic spin populations:    2.0000000

-----------------------------------------------------
MULLIKEN REDUCED ORBITAL CHARGES AND SPIN POPULATIONS
-----------------------------------------------------
CHARGE
  0 S s       :     5.997924  s :     5.997924
      pz      :     2.999727  p :     9.998920
      px      :     3.999055
      py      :     3.000138
      dz2     :     0.000519  d :     0.002076
      dxz     :     0.000000
      dyz     :     0.000000
      dx2y2   :     0.001555
      dxy     :     0.000003
      f0      :     0.000103  f :     0.001080
      f+1     :     0.000198
      f-1     :     0.000017
      f+2     :     0.000172
      f-2     :     0.000000
      f+3     :     0.000330
      f-3     :     0.000259

SPIN
  0 S s       :    -0.000904  s :    -0.000904
      pz      :     0.999722  p :     1.999009
      px      :    -0.000023
      py      :     0.999310
      dz2     :     0.000226  d :     0.000904
      dxz     :     0.000000
      dyz     :     0.000000
      dx2y2   :     0.000677
      dxy     :     0.000001
      f0      :     0.000103  f :     0.000991
      f+1     :     0.000165
      f-1     :     0.000017
      f+2     :     0.000172
      f-2     :     0.000000
      f+3     :     0.000275
      f-3     :     0.000259


                     *******************************
                     * LOEWDIN POPULATION ANALYSIS *
                     *******************************

-------------------------------------------
LOEWDIN ATOMIC CHARGES AND SPIN POPULATIONS
-------------------------------------------
   0 S :    0.000000    2.000000

----------------------------------------------------
LOEWDIN REDUCED ORBITAL CHARGES AND SPIN POPULATIONS
----------------------------------------------------
CHARGE
  0 S s       :     5.997924  s :     5.997924
      pz      :     2.999727  p :     9.998920
      px      :     3.999055
      py      :     3.000138
      dz2     :     0.000519  d :     0.002076
      dxz     :     0.000000
      dyz     :     0.000000
      dx2y2   :     0.001555
      dxy     :     0.000003
      f0      :     0.000103  f :     0.001080
      f+1     :     0.000198
      f-1     :     0.000017
      f+2     :     0.000172
      f-2     :     0.000000
      f+3     :     0.000330
      f-3     :     0.000259

SPIN
  0 S s       :    -0.000904  s :    -0.000904
      pz      :     0.999722  p :     1.999009
      px      :    -0.000023
      py      :     0.999310
      dz2     :     0.000226  d :     0.000904
      dxz     :     0.000000
      dyz     :     0.000000
      dx2y2   :     0.000677
      dxy     :     0.000001
      f0      :     0.000103  f :     0.000991
      f+1     :     0.000165
      f-1     :     0.000017
      f+2     :     0.000172
      f-2     :     0.000000
      f+3     :     0.000275
      f-3     :     0.000259


                      *****************************
                      * MAYER POPULATION ANALYSIS *
                      *****************************

  NA   - Mulliken gross atomic population
  ZA   - Total nuclear charge
  QA   - Mulliken gross atomic charge
  VA   - Mayer's total valence
  BVA  - Mayer's bonded valence
  FA   - Mayer's free valence

  ATOM       NA         ZA         QA         VA         BVA        FA
  0 S     16.0000    16.0000    -0.0000     2.0110     0.0000     2.0110

  Mayer bond orders larger than 0.100000


-------
TIMINGS
-------

Total SCF time: 0 days 0 hours 0 min 1 sec 

Total time                  ....       1.375 sec
Sum of individual times     ....       1.271 sec  ( 92.4%)

Fock matrix formation       ....       1.062 sec  ( 77.2%)
  Split-RI-J                ....       0.734 sec  ( 69.1% of F)
  XC integration            ....       0.274 sec  ( 25.8% of F)
    Basis function eval.    ....       0.007 sec  (  2.4% of XC)
    Density eval.           ....       0.009 sec  (  3.2% of XC)
    XC-Functional eval.     ....       0.006 sec  (  2.2% of XC)
    XC-Potential eval.      ....       0.014 sec  (  5.1% of XC)
Diagonalization             ....       0.008 sec  (  0.6%)
Density matrix formation    ....       0.003 sec  (  0.2%)
Population analysis         ....       0.009 sec  (  0.6%)
Initial guess               ....       0.123 sec  (  9.0%)
Orbital Transformation      ....       0.000 sec  (  0.0%)
Orbital Orthonormalization  ....       0.000 sec  (  0.0%)
DIIS solution               ....       0.005 sec  (  0.4%)
Grid generation             ....       0.062 sec  (  4.5%)


-------------------------------------------------------------------------------
                          DFT DISPERSION CORRECTION                            
                                                                               
                              DFTD3 V3.1  Rev 1                                
                          USING Becke-Johnson damping                          
-------------------------------------------------------------------------------
The TPSS functional is recognized
Active option DFTDOPT                   ...         4   

molecular C6(AA) [au] = 133.949864 


            DFT-D V3
 parameters
 s6 scaling factor         :     1.0000 
 a1 scaling factor         :     0.4535 
 s8 scaling factor         :     1.9435 
 a2 scaling factor         :     4.4752 
 ad hoc parameters k1-k3   :    16.0000     1.3333    -4.0000 

 Edisp/kcal,au: -0.000000000000  -0.000000000000 
 E6   /kcal   :  -0.000000000 
 E8   /kcal   :  -0.000000000 
 % E8         :          -nan 

-------------------------   ----------------
Dispersion correction            0.000000000
-------------------------   ----------------


-------------------------   --------------------
FINAL SINGLE POINT ENERGY      -398.142475738797
-------------------------   --------------------


                            ***************************************
                            *     ORCA property calculations      *
                            ***************************************

                                    ---------------------
                                    Active property flags
                                    ---------------------
   (+) Dipole Moment


------------------------------------------------------------------------------
                       ORCA ELECTRIC PROPERTIES CALCULATION
------------------------------------------------------------------------------

Dipole Moment Calculation                       ... on
Quadrupole Moment Calculation                   ... off
Polarizability Calculation                      ... off
GBWName                                         ... 76_S.gbw
Electron density file                           ... 76_S.scfp
The origin for moment calculation is the CENTER OF MASS  = ( 0.000000,  0.000000  0.000000)

-------------
DIPOLE MOMENT
-------------
                                X             Y             Z
Electronic contribution:     -0.00000       0.00000      -0.00000
Nuclear contribution   :      0.00000       0.00000       0.00000
                        -----------------------------------------
Total Dipole Moment    :     -0.00000       0.00000      -0.00000
                        -----------------------------------------
Magnitude (a.u.)       :      0.00000
Magnitude (Debye)      :      0.00000



--------------------
Rotational spectrum 
--------------------
 
Rotational constants in cm-1:     0.000000     0.000000     0.000000 
Rotational constants in MHz :     0.000000     0.000000     0.000000 

 Dipole components along the rotational axes: 
x,y,z [a.u.] :    -0.000000     0.000000    -0.000000 
x,y,z [Debye]:    -0.000000     0.000000    -0.000000 

 

Timings for individual modules:

Sum of individual times         ...        2.426 sec (=   0.040 min)
GTO integral calculation        ...        0.728 sec (=   0.012 min)  30.0 %
SCF iterations                  ...        1.698 sec (=   0.028 min)  70.0 %
                             ****ORCA TERMINATED NORMALLY****
TOTAL RUN TIME: 0 days 0 hours 0 minutes 2 seconds 903 msec
