
                                 *****************
                                 * O   R   C   A *
                                 *****************

           --- An Ab Initio, DFT and Semiempirical electronic structure package ---

                  #######################################################
                  #                        -***-                        #
                  #          Department of theory and spectroscopy      #
                  #               Directorship: Frank Neese             #
                  #        Max Planck Institute fuer Kohlenforschung    #
                  #                Kaiser Wilhelm Platz 1               #
                  #                 D-45470 Muelheim/Ruhr               #
                  #                      Germany                        #
                  #                                                     #
                  #                  All rights reserved                #
                  #                        -***-                        #
                  #######################################################


                         Program Version 4.2.0 -  RELEASE  -


 With contributions from (in alphabetic order):
   Daniel Aravena         : Magnetic Suceptibility
   Michael Atanasov       : Ab Initio Ligand Field Theory (pilot matlab implementation)
   Alexander A. Auer      : GIAO ZORA, VPT2
   Ute Becker             : Parallelization
   Giovanni Bistoni       : ED, misc. LED, open-shell LED, HFLED
   Martin Brehm           : Molecular dynamics
   Dmytro Bykov           : SCF Hessian
   Vijay G. Chilkuri      : MRCI spin determinant printing, contributions to CSF-ICE
   Dipayan Datta          : RHF DLPNO-CCSD density
   Achintya Kumar Dutta   : EOM-CC, STEOM-CC
   Dmitry Ganyushin       : Spin-Orbit,Spin-Spin,Magnetic field MRCI
   Miquel Garcia          : C-PCM Hessian, Gaussian charge scheme
   Yang Guo               : DLPNO-NEVPT2, CIM, IAO-localization
   Andreas Hansen         : Spin unrestricted coupled pair/coupled cluster methods
   Benjamin Helmich-Paris : CASSCF linear response (MC-RPA)
   Lee Huntington         : MR-EOM, pCC
   Robert Izsak           : Overlap fitted RIJCOSX, COSX-SCS-MP3, EOM
   Christian Kollmar      : KDIIS, OOCD, Brueckner-CCSD(T), CCSD density
   Simone Kossmann        : Meta GGA functionals, TD-DFT gradient, OOMP2, MP2 Hessian
   Martin Krupicka        : AUTO-CI
   Lucas Lang             : DCDCAS
   Dagmar Lenk            : GEPOL surface, SMD
   Dimitrios Liakos       : Extrapolation schemes; Compound Job, initial MDCI parallelization
   Dimitrios Manganas     : Further ROCIS development; embedding schemes
   Dimitrios Pantazis     : SARC Basis sets
   Taras Petrenko         : DFT Hessian,TD-DFT gradient, ASA, ECA, R-Raman, ABS, FL, XAS/XES, NRVS
   Peter Pinski           : DLPNO-MP2, DLPNO-MP2 Gradient
   Christoph Reimann      : Effective Core Potentials
   Marius Retegan         : Local ZFS, SOC
   Christoph Riplinger    : Optimizer, TS searches, QM/MM, DLPNO-CCSD(T), (RO)-DLPNO pert. Triples
   Tobias Risthaus        : Range-separated hybrids, TD-DFT gradient, RPA, STAB
   Michael Roemelt        : Original ROCIS implementation
   Masaaki Saitow         : Open-shell DLPNO-CCSD energy and density
   Barbara Sandhoefer     : DKH picture change effects
   Avijit Sen             : IP-ROCIS
   Kantharuban Sivalingam : CASSCF convergence, NEVPT2, FIC-MRCI
   Bernardo de Souza      : ESD, SOC TD-DFT
   Georgi Stoychev        : AutoAux, RI-MP2 NMR
   Willem Van den Heuvel  : Paramagnetic NMR
   Boris Wezisla          : Elementary symmetry handling
   Frank Wennmohs         : Technical directorship


 We gratefully acknowledge several colleagues who have allowed us to
 interface, adapt or use parts of their codes:
   Stefan Grimme, W. Hujo, H. Kruse,             : VdW corrections, initial TS optimization,
                  C. Bannwarth                     DFT functionals, gCP, sTDA/sTD-DF
   Ed Valeev, F. Pavosevic, A. Kumar             : LibInt (2-el integral package), F12 methods
   Garnet Chan, S. Sharma, J. Yang, R. Olivares  : DMRG
   Ulf Ekstrom                                   : XCFun DFT Library
   Mihaly Kallay                                 : mrcc  (arbitrary order and MRCC methods)
   Andreas Klamt, Michael Diedenhofen            : otool_cosmo (COSMO solvation model)
   Jiri Pittner, Ondrej Demel                    : Mk-CCSD
   Frank Weinhold                                : gennbo (NPA and NBO analysis)
   Christopher J. Cramer and Donald G. Truhlar   : smd solvation model
   Lars Goerigk                                  : TD-DFT with DH, B97 family of functionals
   V. Asgeirsson, H. Jonsson                     : NEB implementation
   FAccTs GmbH                                   : IRC, NEB, NEB-TS, Multilevel, MM, QM/MM, CI optimization
   S Lehtola, MJT Oliveira, MAL Marques          : LibXC Library


 Your calculation uses the libint2 library for the computation of 2-el integrals
 For citations please refer to: http://libint.valeyev.net

 Your ORCA version has been built with support for libXC version: 4.2.3
 For citations please refer to: https://tddft.org/programs/libxc/

 This ORCA versions uses:
   CBLAS   interface :  Fast vector & matrix operations
   LAPACKE interface :  Fast linear algebra routines
   SCALAPACK package :  Parallel linear algebra routines


Your calculation utilizes the atom-pairwise dispersion correction
with the Becke-Johnson damping scheme (D3BJ)
Cite in your paper:
S.Grimme, S.Ehrlich, L.Goerigk, J Comput Chem, (2011), 32, 1456–1465 
S.Grimme, J.Antony, S.Ehrlich and H.Krieg, J.Chem.Phys., 132, (2010), 154104 
   

----- Orbital basis set information -----
Your calculation utilizes the basis: aug-cc-pVTZ 
    H, B-Ne : Obtained from the ccRepo (grant-hill.group.shef.ac.uk/ccrepo) Feb. 2017
              R. A. Kendall, T. H. Dunning, Jr., R. J. Harrison, J. Chem. Phys. 96, 6796 (1992)
         He : Obtained from the ccRepo (grant-hill.group.shef.ac.uk/ccrepo) Feb. 2017
              D. E. Woon, T. H. Dunning, Jr., J. Chem. Phys. 100, 2975 (1994)
  Li-Be, Na : Obtained from the ccRepo (grant-hill.group.shef.ac.uk/ccrepo) Feb. 2017
              B. P. Prascher, D. E. Woon, K. A. Peterson, T. H. Dunning, Jr., A. K. Wilson, Theor. Chem. Acc. 128, 69 (2011)
         Mg : Obtained from the Peterson Research Group Website (tyr0.chem.wsu.edu/~kipeters) Feb. 2017
              B. P. Prascher, D. E. Woon, K. A. Peterson, T. H. Dunning, Jr., A. K. Wilson, Theor. Chem. Acc. 128, 69 (2011)
      Al-Ar : Obtained from the ccRepo (grant-hill.group.shef.ac.uk/ccrepo) Feb. 2017
              D. E. Woon, T. H. Dunning, Jr., J. Chem. Phys. 98, 1358 (1993)
      Sc-Zn : Obtained from the ccRepo (grant-hill.group.shef.ac.uk/ccrepo) Feb. 2017
              N. B. Balabanov, K. A. Peterson, J. Chem. Phys. 123, 064107 (2005)
              N. B. Balabanov, K. A. Peterson, J. Chem. Phys. 125, 074110 (2006)
      Ga-Kr : Obtained from the ccRepo (grant-hill.group.shef.ac.uk/ccrepo) Feb. 2017
              A. K. Wilson, D. E. Woon, K. A. Peterson, T. H. Dunning, Jr., J. Chem. Phys. 110, 7667 (1999)
     Ag, Au : Obtained from the Peterson Research Group Website (tyr0.chem.wsu.edu/~kipeters) Feb. 2017
              K. A. Peterson, C. Puzzarini, Theor. Chem. Acc. 114, 283 (2005)

----- AuxJ basis set information -----
Your calculation utilizes the auxiliary basis: def2/J
   F. Weigend, Phys. Chem. Chem. Phys. 8, 1057 (2006).

================================================================================
                                        WARNINGS
                       Please study these warnings very carefully!
================================================================================


WARNING: your system is open-shell and RHF/RKS was chosen
  ===> : WILL SWITCH to UHF/UKS


INFO   : the flag for use of LIBINT has been found!

================================================================================
                                       INPUT FILE
================================================================================
NAME = 06_ScS.in
|  1> #
|  2> # 06_ScS tpss/aug-cc-pvtz
|  3> #
|  4> ! tpss d3bj aug-cc-pvtz def2/j grid4 nofinalgrid
|  5> 
|  6> *xyz 0 2
|  7>   Sc  0.00000000000000      0.00000000000000     -0.07079618847288
|  8>   S   0.00000000000000      0.00000000000000      2.07079618847288
|  9> *
| 10> 
| 11> %pal
| 12> nprocs 24
| 13> end
| 14> 
| 15> 
| 16>                          ****END OF INPUT****
================================================================================

                       ****************************
                       * Single Point Calculation *
                       ****************************

---------------------------------
CARTESIAN COORDINATES (ANGSTROEM)
---------------------------------
  Sc     0.000000    0.000000   -0.070796
  S      0.000000    0.000000    2.070796

----------------------------
CARTESIAN COORDINATES (A.U.)
----------------------------
  NO LB      ZA    FRAG     MASS         X           Y           Z
   0 Sc   21.0000    0    44.960    0.000000    0.000000   -0.133785
   1 S    16.0000    0    32.060    0.000000    0.000000    3.913238

--------------------------------
INTERNAL COORDINATES (ANGSTROEM)
--------------------------------
 Sc     0   0   0     0.000000000000     0.00000000     0.00000000
 S      1   0   0     2.141592376946     0.00000000     0.00000000

---------------------------
INTERNAL COORDINATES (A.U.)
---------------------------
 Sc     0   0   0     0.000000000000     0.00000000     0.00000000
 S      1   0   0     4.047023082921     0.00000000     0.00000000

---------------------
BASIS SET INFORMATION
---------------------
There are 2 groups of distinct atoms

 Group   1 Type Sc  : 116s77p23d3f2g contracted to 8s7p5d3f2g pattern {19191919191911/151515151511/77711/111/11}
 Group   2 Type S   : 42s17p3d2f contracted to 6s5p3d2f pattern {131313111/77111/111/11}

Atom   0Sc   basis set group =>   1
Atom   1S    basis set group =>   2
---------------------------------
AUXILIARY/J BASIS SET INFORMATION
---------------------------------
There are 2 groups of distinct atoms

 Group   1 Type Sc  : 19s5p5d3f3g contracted to 8s5p5d2f3g pattern {121111111/11111/11111/21/111}
 Group   2 Type S   : 14s5p5d2f1g contracted to 8s4p3d1f1g pattern {71111111/2111/311/2/1}

Atom   0Sc   basis set group =>   1
Atom   1S    basis set group =>   2


           ************************************************************
           *        Program running with 24 parallel MPI-processes    *
           *              working on a common directory               *
           ************************************************************
------------------------------------------------------------------------------
                           ORCA GTO INTEGRAL CALCULATION
                           -- RI-GTO INTEGRALS CHOSEN --
------------------------------------------------------------------------------

                         BASIS SET STATISTICS AND STARTUP INFO

Gaussian basis set:
 # of primitive gaussian shells          ...  285
 # of primitive gaussian functions       ...  623
 # of contracted shells                  ...   41
 # of contracted basis functions         ...  143
 Highest angular momentum                ...    4
 Maximum contraction depth               ...   19
Auxiliary gaussian basis set:
 # of primitive gaussian shells          ...   62
 # of primitive gaussian functions       ...  184
 # of contracted shells                  ...   40
 # of contracted aux-basis functions     ...  140
 Highest angular momentum                ...    4
 Maximum contraction depth               ...   12
Ratio of auxiliary to basis functions    ...  0.98
Integral package used                  ... LIBINT
 One Electron integrals                  ... done
 Ordering auxiliary basis shells         ... done
 Integral threshhold             Thresh  ...  1.000e-10
 Primitive cut-off               TCut    ...  1.000e-11
 Pre-screening matrix                    ... done
 Shell pair data                         ... 
 Ordering of the shell pairs             ... done (   0.000 sec) 861 of 861 pairs
 Determination of significant pairs      ... done (   0.000 sec)
 Creation of shell pair data             ... done (   0.001 sec)
 Storage of shell pair data              ... done (   0.072 sec)
 Shell pair data done in (   0.073 sec)
 Computing two index integrals           ... done
 Cholesky decomposition of the V-matrix  ... done


Timings:
 Total evaluation time                   ...   3.111 sec (  0.052 min)
 One electron matrix time                ...   0.050 sec (  0.001 min) =  1.6%
 Schwartz matrix evaluation time         ...   2.951 sec (  0.049 min) = 94.9%
 Two index repulsion integral time       ...   0.001 sec (  0.000 min) =  0.0%
 Cholesky decomposition of V             ...   0.001 sec (  0.000 min) =  0.0%
 Three index repulsion integral time     ...   0.000 sec (  0.000 min) =  0.0%



           ************************************************************
           *        Program running with 24 parallel MPI-processes    *
           *              working on a common directory               *
           ************************************************************
-------------------------------------------------------------------------------
                                 ORCA SCF
-------------------------------------------------------------------------------

------------
SCF SETTINGS
------------
Hamiltonian:
 Density Functional     Method          .... DFT(GTOs)
 Exchange Functional    Exchange        .... TPSS
 Correlation Functional Correlation     .... TPSS
 LDA part of GGA corr.  LDAOpt          .... PW91-LDA
 Gradients option       PostSCFGGA      .... off
   Density functional embedding theory  .... OFF
   NL short-range parameter             ....  5.000000
 RI-approximation to the Coulomb term is turned on
   Number of auxiliary basis functions  .... 140


General Settings:
 Integral files         IntName         .... 06_ScS
 Hartree-Fock type      HFTyp           .... UHF
 Total Charge           Charge          ....    0
 Multiplicity           Mult            ....    2
 Number of Electrons    NEL             ....   37
 Basis Dimension        Dim             ....  143
 Nuclear Repulsion      ENuc            ....     83.0239890200 Eh

Convergence Acceleration:
 DIIS                   CNVDIIS         .... on
   Start iteration      DIISMaxIt       ....    12
   Startup error        DIISStart       ....  0.200000
   # of expansion vecs  DIISMaxEq       ....     5
   Bias factor          DIISBfac        ....   1.050
   Max. coefficient     DIISMaxC        ....  10.000
 Newton-Raphson         CNVNR           .... off
 SOSCF                  CNVSOSCF        .... off
 Level Shifting         CNVShift        .... on
   Level shift para.    LevelShift      ....    0.2500
   Turn off err/grad.   ShiftErr        ....    0.0010
 Zerner damping         CNVZerner       .... off
 Static damping         CNVDamp         .... on
   Fraction old density DampFac         ....    0.7000
   Max. Damping (<1)    DampMax         ....    0.9800
   Min. Damping (>=0)   DampMin         ....    0.0000
   Turn off err/grad.   DampErr         ....    0.1000
 Fernandez-Rico         CNVRico         .... off

SCF Procedure:
 Maximum # iterations   MaxIter         ....   125
 SCF integral mode      SCFMode         .... Direct
   Integral package                     .... LIBINT
 Reset frequency        DirectResetFreq ....    20
 Integral Threshold     Thresh          ....  1.000e-10 Eh
 Primitive CutOff       TCut            ....  1.000e-11 Eh

Convergence Tolerance:
 Convergence Check Mode ConvCheckMode   .... Total+1el-Energy
 Convergence forced     ConvForced      .... 0
 Energy Change          TolE            ....  1.000e-06 Eh
 1-El. energy change                    ....  1.000e-03 Eh
 DIIS Error             TolErr          ....  1.000e-06


Diagonalization of the overlap matrix:
Smallest eigenvalue                        ... 6.249e-05
Time for diagonalization                   ...    0.004 sec
Threshold for overlap eigenvalues          ... 1.000e-08
Number of eigenvalues below threshold      ... 0
Time for construction of square roots      ...    0.002 sec
Total time needed                          ...    0.007 sec

-------------------
DFT GRID GENERATION
-------------------

General Integration Accuracy     IntAcc      ...  4.670
Radial Grid Type                 RadialGrid  ... Gauss-Chebyshev
Angular Grid (max. acc.)         AngularGrid ... Lebedev-302
Angular grid pruning method      GridPruning ... 3 (G Style)
Weight generation scheme         WeightScheme... Becke
Basis function cutoff            BFCut       ...    1.0000e-10
Integration weight cutoff        WCut        ...    1.0000e-14
Grids for H and He will be reduced by one unit

# of grid points (after initial pruning)     ...  16510 (   0.0 sec)
# of grid points (after weights+screening)   ...  16482 (   0.0 sec)
nearest neighbour list constructed           ...    0.0 sec
Grid point re-assignment to atoms done       ...    0.0 sec
Grid point division into batches done        ...    0.1 sec
Reduced shell lists constructed in    0.1 sec

Total number of grid points                  ...    16482
Total number of batches                      ...      259
Average number of points per batch           ...       63
Average number of grid points per atom       ...     8241
Average number of shells per batch           ...    21.33 (52.03%)
Average number of basis functions per batch  ...    68.50 (47.90%)
Average number of large shells per batch     ...    14.00 (65.62%)
Average number of large basis fcns per batch ...    45.50 (66.42%)
Maximum spatial batch extension              ...  26.53, 26.21, 18.83 au
Average spatial batch extension              ...   0.91,  0.90,  0.69 au

Time for grid setup =    0.163 sec

------------------------------
INITIAL GUESS: MODEL POTENTIAL
------------------------------
Loading Hartree-Fock densities                     ... done
Calculating cut-offs                               ... done
Setting up the integral package                    ... done
Initializing the effective Hamiltonian             ... done
Starting the Coulomb interaction                   ... done (   0.0 sec)
Reading the grid                                   ... done
Mapping shells                                     ... done
Starting the XC term evaluation                    ... done (   0.0 sec)
  promolecular density results
     # of electrons  =     37.000027201
     EX              =    -62.742301873
     EC              =     -1.448224405
     EX+EC           =    -64.190526278
Transforming the Hamiltonian                       ... done (   0.0 sec)
Diagonalizing the Hamiltonian                      ... done (   0.0 sec)
Back transforming the eigenvectors                 ... done (   0.0 sec)
Now organizing SCF variables                       ... done
                      ------------------
                      INITIAL GUESS DONE (   0.3 sec)
                      ------------------
--------------
SCF ITERATIONS
--------------
ITER       Energy         Delta-E        Max-DP      RMS-DP      [F,P]     Damp
               ***  Starting incremental Fock matrix formation  ***
  0  -1158.8399212366   0.000000000000 0.07561361  0.00162610  0.1693434 0.7000
  1  -1158.9151441901  -0.075222953465 0.09628554  0.00187699  0.0592982 0.7000
                               ***Turning on DIIS***
  2  -1158.9261291817  -0.010984991604 0.22656928  0.00420753  0.0666226 0.0000
  3  -1158.9676805491  -0.041551367493 0.18420366  0.00339437  0.0830112 0.0000
  4  -1158.9765749812  -0.008894432063 0.02300920  0.00029576  0.0516408 0.0000
  5  -1158.9812994064  -0.004724425237 0.04198370  0.00035659  0.0316612 0.0000
  6  -1158.9832514611  -0.001952054686 0.05552561  0.00045707  0.0176834 0.0000
  7  -1158.9839524244  -0.000700963274 0.04918978  0.00039761  0.0097053 0.0000
  8  -1158.9842285788  -0.000276154419 0.03276448  0.00025228  0.0044849 0.0000
  9  -1158.9843296955  -0.000101116681 0.02459794  0.00018733  0.0021238 0.0000
 10  -1158.9843802278  -0.000050532335 0.01977222  0.00015313  0.0019407 0.0000
 11  -1158.9844188380  -0.000038610160 0.01663990  0.00013261  0.0011705 0.0000
 12  -1158.9844449604  -0.000026122441 0.01277538  0.00009626  0.0011695 0.0000
 13  -1158.9844633263  -0.000018365877 0.04256363  0.00030782  0.0007696 0.0000
 14  -1158.9844941210  -0.000030794679 0.00691063  0.00006579  0.0008738 0.0000
 15  -1158.9844952802  -0.000001159174 0.00451765  0.00003948  0.0007257 0.0000
 16  -1158.9844957355  -0.000000455281 0.00214330  0.00001865  0.0005047 0.0000
 17  -1158.9844961992  -0.000000463767 0.00038596  0.00000326  0.0000236 0.0000
                 **** Energy Check signals convergence ****

               *****************************************************
               *                     SUCCESS                       *
               *           SCF CONVERGED AFTER  18 CYCLES          *
               *****************************************************


----------------
TOTAL SCF ENERGY
----------------

Total Energy       :        -1158.98449620 Eh          -31537.57148 eV

Components:
Nuclear Repulsion  :           83.02398902 Eh            2259.19760 eV
Electronic Energy  :        -1242.00848522 Eh          -33796.76908 eV
One Electron Energy:        -1757.59763785 Eh          -47826.66319 eV
Two Electron Energy:          515.58915264 Eh           14029.89411 eV

Virial components:
Potential Energy   :        -2315.50534553 Eh          -63008.10372 eV
Kinetic Energy     :         1156.52084933 Eh           31470.53224 eV
Virial Ratio       :            2.00213022


DFT components:
N(Alpha)           :       19.000002648815 electrons
N(Beta)            :       18.000003463697 electrons
N(Total)           :       37.000006112512 electrons
E(X)               :      -63.276997989133 Eh       
E(C)               :       -1.466702012261 Eh       
E(XC)              :      -64.743700001394 Eh       
DFET-embed. en.    :        0.000000000000 Eh       

---------------
SCF CONVERGENCE
---------------

  Last Energy change         ...    2.9086e-09  Tolerance :   1.0000e-06
  Last MAX-Density change    ...    4.3507e-05  Tolerance :   1.0000e-05
  Last RMS-Density change    ...    7.8249e-07  Tolerance :   1.0000e-06
  Last DIIS Error            ...    7.7536e-06  Tolerance :   1.0000e-06

             **** THE GBW FILE WAS UPDATED (06_ScS.gbw) ****
             **** DENSITY FILE WAS UPDATED (06_ScS.scfp) ****
             **** ENERGY FILE WAS UPDATED (06_ScS.en.tmp) ****
----------------------
UHF SPIN CONTAMINATION
----------------------

Warning: in a DFT calculation there is little theoretical justification to 
         calculate <S**2> as in Hartree-Fock theory. We will do it anyways
         but you should keep in mind that the values have only limited relevance

Expectation value of <S**2>     :     0.753223
Ideal value S*(S+1) for S=0.5   :     0.750000
Deviation                       :     0.003223

             **** THE GBW FILE WAS UPDATED (06_ScS.gbw) ****
             **** DENSITY FILE WAS UPDATED (06_ScS.scfp) ****
----------------
ORBITAL ENERGIES
----------------
                 SPIN UP ORBITALS
  NO   OCC          E(Eh)            E(eV) 
   0   1.0000    -161.050588     -4382.4093 
   1   1.0000     -88.323811     -2403.4131 
   2   1.0000     -17.333242      -471.6615 
   3   1.0000     -14.275903      -388.4671 
   4   1.0000     -14.275903      -388.4671 
   5   1.0000     -14.266285      -388.2054 
   6   1.0000      -7.682808      -209.0598 
   7   1.0000      -5.660376      -154.0267 
   8   1.0000      -5.660376      -154.0267 
   9   1.0000      -5.658910      -153.9868 
  10   1.0000      -2.019643       -54.9573 
  11   1.0000      -1.244597       -33.8672 
  12   1.0000      -1.244597       -33.8672 
  13   1.0000      -1.232807       -33.5464 
  14   1.0000      -0.562763       -15.3136 
  15   1.0000      -0.228089        -6.2066 
  16   1.0000      -0.214390        -5.8339 
  17   1.0000      -0.214390        -5.8339 
  18   1.0000      -0.156088        -4.2474 
  19   0.0000      -0.126347        -3.4381 
  20   0.0000      -0.126347        -3.4381 
  21   0.0000      -0.101290        -2.7562 
  22   0.0000      -0.101290        -2.7562 
  23   0.0000      -0.089320        -2.4305 
  24   0.0000      -0.034404        -0.9362 
  25   0.0000      -0.034404        -0.9362 
  26   0.0000      -0.004936        -0.1343 
  27   0.0000       0.002207         0.0601 
  28   0.0000       0.013599         0.3700 
  29   0.0000       0.013599         0.3700 
  30   0.0000       0.017452         0.4749 
  31   0.0000       0.017453         0.4749 
  32   0.0000       0.022741         0.6188 
  33   0.0000       0.022741         0.6188 
  34   0.0000       0.023919         0.6509 
  35   0.0000       0.049844         1.3563 
  36   0.0000       0.067463         1.8358 
  37   0.0000       0.075430         2.0526 
  38   0.0000       0.075431         2.0526 
  39   0.0000       0.081729         2.2240 
  40   0.0000       0.081729         2.2240 
  41   0.0000       0.083450         2.2708 
  42   0.0000       0.092378         2.5137 
  43   0.0000       0.092378         2.5137 
  44   0.0000       0.102464         2.7882 
  45   0.0000       0.102464         2.7882 
  46   0.0000       0.103858         2.8261 
  47   0.0000       0.105421         2.8687 
  48   0.0000       0.105421         2.8687 
  49   0.0000       0.107579         2.9274 
  50   0.0000       0.107579         2.9274 
  51   0.0000       0.140090         3.8121 
  52   0.0000       0.166048         4.5184 
  53   0.0000       0.166049         4.5184 
  54   0.0000       0.193063         5.2535 
  55   0.0000       0.246565         6.7094 
  56   0.0000       0.246567         6.7094 
  57   0.0000       0.247400         6.7321 
  58   0.0000       0.285653         7.7730 
  59   0.0000       0.285653         7.7730 
  60   0.0000       0.315260         8.5787 
  61   0.0000       0.315260         8.5787 
  62   0.0000       0.323699         8.8083 
  63   0.0000       0.337246         9.1769 
  64   0.0000       0.345767         9.4088 
  65   0.0000       0.345767         9.4088 
  66   0.0000       0.376052        10.2329 
  67   0.0000       0.376052        10.2329 
  68   0.0000       0.379768        10.3340 
  69   0.0000       0.379770        10.3341 
  70   0.0000       0.381742        10.3877 
  71   0.0000       0.381745        10.3878 
  72   0.0000       0.390787        10.6339 
  73   0.0000       0.407522        11.0892 
  74   0.0000       0.407522        11.0892 
  75   0.0000       0.440462        11.9856 
  76   0.0000       0.440463        11.9856 
  77   0.0000       0.443820        12.0769 
  78   0.0000       0.471075        12.8186 
  79   0.0000       0.471075        12.8186 
  80   0.0000       0.543505        14.7895 
  81   0.0000       0.543505        14.7895 
  82   0.0000       0.547413        14.8959 
  83   0.0000       0.547413        14.8959 
  84   0.0000       0.574635        15.6366 
  85   0.0000       0.590172        16.0594 
  86   0.0000       0.590172        16.0594 
  87   0.0000       0.651491        17.7280 
  88   0.0000       0.651504        17.7283 
  89   0.0000       0.670416        18.2430 
  90   0.0000       0.803400        21.8616 
  91   0.0000       0.812585        22.1116 
  92   0.0000       0.812585        22.1116 
  93   0.0000       0.895470        24.3670 
  94   0.0000       0.895470        24.3670 
  95   0.0000       0.947283        25.7769 
  96   0.0000       0.993269        27.0282 
  97   0.0000       0.993271        27.0283 
  98   0.0000       1.050141        28.5758 
  99   0.0000       1.050141        28.5758 
 100   0.0000       1.064400        28.9638 
 101   0.0000       1.285697        34.9856 
 102   0.0000       1.285707        34.9859 
 103   0.0000       1.367641        37.2154 
 104   0.0000       1.412717        38.4420 
 105   0.0000       1.412717        38.4420 
 106   0.0000       1.579817        42.9890 
 107   0.0000       1.579817        42.9890 
 108   0.0000       1.592271        43.3279 
 109   0.0000       1.675852        45.6022 
 110   0.0000       1.770449        48.1764 
 111   0.0000       1.770464        48.1768 
 112   0.0000       1.774785        48.2944 
 113   0.0000       1.774799        48.2947 
 114   0.0000       1.777632        48.3718 
 115   0.0000       1.777632        48.3718 
 116   0.0000       1.884791        51.2878 
 117   0.0000       1.904043        51.8116 
 118   0.0000       1.904097        51.8131 
 119   0.0000       1.910921        51.9988 
 120   0.0000       1.910921        51.9988 
 121   0.0000       1.983846        53.9832 
 122   0.0000       1.983846        53.9832 
 123   0.0000       1.989964        54.1497 
 124   0.0000       2.021670        55.0124 
 125   0.0000       2.021670        55.0124 
 126   0.0000       2.032907        55.3182 
 127   0.0000       2.032924        55.3187 
 128   0.0000       2.106076        57.3092 
 129   0.0000       2.106076        57.3092 
 130   0.0000       2.162543        58.8458 
 131   0.0000       2.162543        58.8458 
 132   0.0000       2.224682        60.5367 
 133   0.0000       2.224682        60.5367 
 134   0.0000       2.226839        60.5954 
 135   0.0000       2.265125        61.6372 
 136   0.0000       2.265128        61.6373 
 137   0.0000       2.393518        65.1309 
 138   0.0000       2.501709        68.0750 
 139   0.0000       2.636737        71.7493 
 140   0.0000       2.636737        71.7493 
 141   0.0000       3.467613        94.3585 
 142   0.0000       5.358249       145.8054 

                 SPIN DOWN ORBITALS
  NO   OCC          E(Eh)            E(eV) 
   0   1.0000    -161.050015     -4382.3937 
   1   1.0000     -88.324057     -2403.4198 
   2   1.0000     -17.330778      -471.5945 
   3   1.0000     -14.274219      -388.4213 
   4   1.0000     -14.274219      -388.4213 
   5   1.0000     -14.263328      -388.1249 
   6   1.0000      -7.683020      -209.0656 
   7   1.0000      -5.660721      -154.0360 
   8   1.0000      -5.660721      -154.0360 
   9   1.0000      -5.659191      -153.9944 
  10   1.0000      -2.010405       -54.7059 
  11   1.0000      -1.237747       -33.6808 
  12   1.0000      -1.237747       -33.6808 
  13   1.0000      -1.216080       -33.0912 
  14   1.0000      -0.563901       -15.3445 
  15   1.0000      -0.225206        -6.1282 
  16   1.0000      -0.214167        -5.8278 
  17   1.0000      -0.214167        -5.8278 
  18   0.0000      -0.127793        -3.4774 
  19   0.0000      -0.110352        -3.0028 
  20   0.0000      -0.110350        -3.0028 
  21   0.0000      -0.089257        -2.4288 
  22   0.0000      -0.089257        -2.4288 
  23   0.0000      -0.071994        -1.9590 
  24   0.0000      -0.022120        -0.6019 
  25   0.0000      -0.022120        -0.6019 
  26   0.0000       0.008188         0.2228 
  27   0.0000       0.010027         0.2729 
  28   0.0000       0.022311         0.6071 
  29   0.0000       0.022311         0.6071 
  30   0.0000       0.028090         0.7644 
  31   0.0000       0.028090         0.7644 
  32   0.0000       0.029245         0.7958 
  33   0.0000       0.029245         0.7958 
  34   0.0000       0.030389         0.8269 
  35   0.0000       0.054342         1.4787 
  36   0.0000       0.080403         2.1879 
  37   0.0000       0.084672         2.3040 
  38   0.0000       0.084676         2.3041 
  39   0.0000       0.091195         2.4815 
  40   0.0000       0.091195         2.4815 
  41   0.0000       0.094924         2.5830 
  42   0.0000       0.101190         2.7535 
  43   0.0000       0.101190         2.7535 
  44   0.0000       0.106187         2.8895 
  45   0.0000       0.110948         3.0191 
  46   0.0000       0.110950         3.0191 
  47   0.0000       0.115802         3.1511 
  48   0.0000       0.115802         3.1511 
  49   0.0000       0.123845         3.3700 
  50   0.0000       0.123845         3.3700 
  51   0.0000       0.149971         4.0809 
  52   0.0000       0.177473         4.8293 
  53   0.0000       0.177473         4.8293 
  54   0.0000       0.202468         5.5094 
  55   0.0000       0.250283         6.8105 
  56   0.0000       0.250286         6.8106 
  57   0.0000       0.257008         6.9935 
  58   0.0000       0.286539         7.7971 
  59   0.0000       0.286539         7.7971 
  60   0.0000       0.324727         8.8363 
  61   0.0000       0.330540         8.9944 
  62   0.0000       0.330555         8.9949 
  63   0.0000       0.343173         9.3382 
  64   0.0000       0.362861         9.8739 
  65   0.0000       0.362861         9.8739 
  66   0.0000       0.372309        10.1310 
  67   0.0000       0.372309        10.1310 
  68   0.0000       0.386851        10.5267 
  69   0.0000       0.386856        10.5269 
  70   0.0000       0.388764        10.5788 
  71   0.0000       0.388771        10.5790 
  72   0.0000       0.401610        10.9284 
  73   0.0000       0.408109        11.1052 
  74   0.0000       0.408109        11.1052 
  75   0.0000       0.446324        12.1451 
  76   0.0000       0.447199        12.1689 
  77   0.0000       0.447199        12.1689 
  78   0.0000       0.490044        13.3348 
  79   0.0000       0.490044        13.3348 
  80   0.0000       0.546472        14.8703 
  81   0.0000       0.546486        14.8706 
  82   0.0000       0.549933        14.9644 
  83   0.0000       0.549933        14.9644 
  84   0.0000       0.576023        15.6744 
  85   0.0000       0.592196        16.1145 
  86   0.0000       0.592196        16.1145 
  87   0.0000       0.652079        17.7440 
  88   0.0000       0.652091        17.7443 
  89   0.0000       0.672175        18.2908 
  90   0.0000       0.804800        21.8997 
  91   0.0000       0.812645        22.1132 
  92   0.0000       0.812645        22.1132 
  93   0.0000       0.896968        24.4078 
  94   0.0000       0.896968        24.4078 
  95   0.0000       0.948200        25.8018 
  96   0.0000       0.995672        27.0936 
  97   0.0000       0.995681        27.0939 
  98   0.0000       1.045920        28.4609 
  99   0.0000       1.045920        28.4609 
 100   0.0000       1.068135        29.0654 
 101   0.0000       1.293015        35.1847 
 102   0.0000       1.293024        35.1850 
 103   0.0000       1.375546        37.4305 
 104   0.0000       1.417184        38.5635 
 105   0.0000       1.417184        38.5635 
 106   0.0000       1.590051        43.2675 
 107   0.0000       1.590051        43.2675 
 108   0.0000       1.602428        43.6043 
 109   0.0000       1.678974        45.6872 
 110   0.0000       1.775130        48.3038 
 111   0.0000       1.775139        48.3040 
 112   0.0000       1.783502        48.5316 
 113   0.0000       1.783502        48.5316 
 114   0.0000       1.785761        48.5930 
 115   0.0000       1.785770        48.5933 
 116   0.0000       1.890987        51.4564 
 117   0.0000       1.903936        51.8087 
 118   0.0000       1.904003        51.8106 
 119   0.0000       1.915422        52.1213 
 120   0.0000       1.915422        52.1213 
 121   0.0000       1.995472        54.2996 
 122   0.0000       1.995472        54.2996 
 123   0.0000       1.997130        54.3447 
 124   0.0000       2.020851        54.9902 
 125   0.0000       2.020851        54.9902 
 126   0.0000       2.034595        55.3641 
 127   0.0000       2.034605        55.3644 
 128   0.0000       2.111612        57.4599 
 129   0.0000       2.111612        57.4599 
 130   0.0000       2.160951        58.8025 
 131   0.0000       2.160951        58.8025 
 132   0.0000       2.224323        60.5269 
 133   0.0000       2.224323        60.5269 
 134   0.0000       2.226504        60.5863 
 135   0.0000       2.264614        61.6233 
 136   0.0000       2.264615        61.6233 
 137   0.0000       2.395145        65.1752 
 138   0.0000       2.502283        68.0906 
 139   0.0000       2.636688        71.7479 
 140   0.0000       2.636688        71.7479 
 141   0.0000       3.471383        94.4611 
 142   0.0000       5.357848       145.7944 

                    ********************************
                    * MULLIKEN POPULATION ANALYSIS *
                    ********************************

--------------------------------------------
MULLIKEN ATOMIC CHARGES AND SPIN POPULATIONS
--------------------------------------------
   0 Sc:    0.300138    1.024493
   1 S :   -0.300138   -0.024493
Sum of atomic charges         :   -0.0000000
Sum of atomic spin populations:    1.0000000

-----------------------------------------------------
MULLIKEN REDUCED ORBITAL CHARGES AND SPIN POPULATIONS
-----------------------------------------------------
CHARGE
  0 Scs       :     6.904241  s :     6.904241
      pz      :     4.149851  p :    12.280565
      px      :     4.065357
      py      :     4.065357
      dz2     :     0.616693  d :     1.463051
      dxz     :     0.423179
      dyz     :     0.423179
      dx2y2   :     0.000000
      dxy     :     0.000000
      f0      :     0.004927  f :     0.039486
      f+1     :     0.017279
      f-1     :     0.017279
      f+2     :     0.000000
      f-2     :     0.000000
      f+3     :     0.000000
      f-3     :     0.000000
      g0      :     0.000532  g :     0.012519
      g+1     :     0.005993
      g-1     :     0.005993
      g+2     :     0.000000
      g-2     :     0.000000
      g+3     :     0.000000
      g-3     :     0.000000
      g+4     :     0.000000
      g-4     :     0.000000
  1 S s       :     5.938444  s :     5.938444
      pz      :     3.378354  p :    10.334635
      px      :     3.478141
      py      :     3.478141
      dz2     :     0.004457  d :     0.021907
      dxz     :     0.008725
      dyz     :     0.008725
      dx2y2   :     0.000000
      dxy     :     0.000000
      f0      :     0.002500  f :     0.005152
      f+1     :     0.001326
      f-1     :     0.001326
      f+2     :     0.000000
      f-2     :     0.000000
      f+3     :     0.000000
      f-3     :     0.000000

SPIN
  0 Scs       :     0.629010  s :     0.629010
      pz      :     0.104563  p :     0.110935
      px      :     0.003186
      py      :     0.003186
      dz2     :     0.245676  d :     0.288978
      dxz     :     0.021651
      dyz     :     0.021651
      dx2y2   :     0.000000
      dxy     :     0.000000
      f0      :    -0.000130  f :    -0.003690
      f+1     :    -0.001780
      f-1     :    -0.001780
      f+2     :     0.000000
      f-2     :    -0.000000
      f+3     :    -0.000000
      f-3     :    -0.000000
      g0      :     0.000040  g :    -0.000740
      g+1     :    -0.000390
      g-1     :    -0.000390
      g+2     :     0.000000
      g-2     :    -0.000000
      g+3     :    -0.000000
      g-3     :    -0.000000
      g+4     :    -0.000000
      g-4     :     0.000000
  1 S s       :     0.054124  s :     0.054124
      pz      :    -0.033767  p :    -0.079503
      px      :    -0.022868
      py      :    -0.022868
      dz2     :    -0.000534  d :    -0.000013
      dxz     :     0.000261
      dyz     :     0.000261
      dx2y2   :     0.000000
      dxy     :    -0.000000
      f0      :     0.001018  f :     0.000899
      f+1     :    -0.000060
      f-1     :    -0.000060
      f+2     :     0.000000
      f-2     :     0.000000
      f+3     :     0.000000
      f-3     :     0.000000


                     *******************************
                     * LOEWDIN POPULATION ANALYSIS *
                     *******************************

-------------------------------------------
LOEWDIN ATOMIC CHARGES AND SPIN POPULATIONS
-------------------------------------------
   0 Sc:    0.083454    0.940608
   1 S :   -0.083454    0.059392

----------------------------------------------------
LOEWDIN REDUCED ORBITAL CHARGES AND SPIN POPULATIONS
----------------------------------------------------
CHARGE
  0 Scs       :     6.565816  s :     6.565816
      pz      :     4.225597  p :    12.195007
      px      :     3.984705
      py      :     3.984705
      dz2     :     0.775377  d :     1.698480
      dxz     :     0.461552
      dyz     :     0.461552
      dx2y2   :     0.000000
      dxy     :     0.000000
      f0      :     0.119919  f :     0.280332
      f+1     :     0.080206
      f-1     :     0.080206
      f+2     :     0.000000
      f-2     :     0.000000
      f+3     :     0.000000
      f-3     :     0.000000
      g0      :     0.066764  g :     0.176911
      g+1     :     0.055073
      g-1     :     0.055073
      g+2     :     0.000000
      g-2     :     0.000000
      g+3     :     0.000000
      g-3     :     0.000000
      g+4     :     0.000000
      g-4     :     0.000000
  1 S s       :     5.429753  s :     5.429753
      pz      :     3.523818  p :    10.154613
      px      :     3.315398
      py      :     3.315398
      dz2     :     0.187948  d :     0.307756
      dxz     :     0.059904
      dyz     :     0.059904
      dx2y2   :     0.000000
      dxy     :     0.000000
      f0      :     0.105008  f :     0.191333
      f+1     :     0.043162
      f-1     :     0.043162
      f+2     :     0.000000
      f-2     :     0.000000
      f+3     :     0.000000
      f-3     :     0.000000

SPIN
  0 Scs       :     0.607046  s :     0.607046
      pz      :     0.084049  p :     0.084822
      px      :     0.000387
      py      :     0.000387
      dz2     :     0.227131  d :     0.258231
      dxz     :     0.015550
      dyz     :     0.015550
      dx2y2   :     0.000000
      dxy     :     0.000000
      f0      :     0.000527  f :    -0.006740
      f+1     :    -0.003634
      f-1     :    -0.003634
      f+2     :     0.000000
      f-2     :    -0.000000
      f+3     :    -0.000000
      f-3     :    -0.000000
      g0      :    -0.000380  g :    -0.002751
      g+1     :    -0.001185
      g-1     :    -0.001185
      g+2     :     0.000000
      g-2     :    -0.000000
      g+3     :    -0.000000
      g-3     :    -0.000000
      g+4     :    -0.000000
      g-4     :     0.000000
  1 S s       :     0.030888  s :     0.030888
      pz      :     0.042110  p :     0.015861
      px      :    -0.013125
      py      :    -0.013125
      dz2     :     0.007131  d :     0.010248
      dxz     :     0.001558
      dyz     :     0.001558
      dx2y2   :     0.000000
      dxy     :    -0.000000
      f0      :     0.001499  f :     0.002396
      f+1     :     0.000448
      f-1     :     0.000448
      f+2     :     0.000000
      f-2     :     0.000000
      f+3     :    -0.000000
      f-3     :    -0.000000


                      *****************************
                      * MAYER POPULATION ANALYSIS *
                      *****************************

  NA   - Mulliken gross atomic population
  ZA   - Total nuclear charge
  QA   - Mulliken gross atomic charge
  VA   - Mayer's total valence
  BVA  - Mayer's bonded valence
  FA   - Mayer's free valence

  ATOM       NA         ZA         QA         VA         BVA        FA
  0 Sc    20.6999    21.0000     0.3001     3.4560     2.5666     0.8894
  1 S     16.3001    16.0000    -0.3001     2.5739     2.5666     0.0073

  Mayer bond orders larger than 0.100000
B(  0-Sc,  1-S ) :   2.5666 

-------
TIMINGS
-------

Total SCF time: 0 days 0 hours 0 min 4 sec 

Total time                  ....       4.221 sec
Sum of individual times     ....       3.961 sec  ( 93.8%)

Fock matrix formation       ....       3.523 sec  ( 83.5%)
  Split-RI-J                ....       2.632 sec  ( 74.7% of F)
  XC integration            ....       0.763 sec  ( 21.7% of F)
    Basis function eval.    ....       0.099 sec  ( 13.0% of XC)
    Density eval.           ....       0.113 sec  ( 14.9% of XC)
    XC-Functional eval.     ....       0.026 sec  (  3.4% of XC)
    XC-Potential eval.      ....       0.328 sec  ( 43.0% of XC)
Diagonalization             ....       0.103 sec  (  2.4%)
Density matrix formation    ....       0.013 sec  (  0.3%)
Population analysis         ....       0.007 sec  (  0.2%)
Initial guess               ....       0.116 sec  (  2.7%)
Orbital Transformation      ....       0.000 sec  (  0.0%)
Orbital Orthonormalization  ....       0.000 sec  (  0.0%)
DIIS solution               ....       0.039 sec  (  0.9%)
Grid generation             ....       0.163 sec  (  3.9%)


-------------------------------------------------------------------------------
                          DFT DISPERSION CORRECTION                            
                                                                               
                              DFTD3 V3.1  Rev 1                                
                          USING Becke-Johnson damping                          
-------------------------------------------------------------------------------
The TPSS functional is recognized
Active option DFTDOPT                   ...         4   

molecular C6(AA) [au] = 1166.728510 


            DFT-D V3
 parameters
 s6 scaling factor         :     1.0000 
 a1 scaling factor         :     0.4535 
 s8 scaling factor         :     1.9435 
 a2 scaling factor         :     4.4752 
 ad hoc parameters k1-k3   :    16.0000     1.3333    -4.0000 

 Edisp/kcal,au: -1.254625509261  -0.001999372802 
 E6   /kcal   :  -0.397465671 
 E8   /kcal   :  -0.857159838 
 % E8         :  68.319975308 

-------------------------   ----------------
Dispersion correction           -0.001999373
-------------------------   ----------------


-------------------------   --------------------
FINAL SINGLE POINT ENERGY     -1158.986495569117
-------------------------   --------------------


                            ***************************************
                            *     ORCA property calculations      *
                            ***************************************

                                    ---------------------
                                    Active property flags
                                    ---------------------
   (+) Dipole Moment


------------------------------------------------------------------------------
                       ORCA ELECTRIC PROPERTIES CALCULATION
------------------------------------------------------------------------------

Dipole Moment Calculation                       ... on
Quadrupole Moment Calculation                   ... off
Polarizability Calculation                      ... off
GBWName                                         ... 06_ScS.gbw
Electron density file                           ... 06_ScS.scfp
The origin for moment calculation is the CENTER OF MASS  = ( 0.000000,  0.000000  1.550810)

-------------
DIPOLE MOMENT
-------------
                                X             Y             Z
Electronic contribution:      0.00000       0.00000      -4.43435
Nuclear contribution   :      0.00000       0.00000       2.42233
                        -----------------------------------------
Total Dipole Moment    :      0.00000       0.00000      -2.01202
                        -----------------------------------------
Magnitude (a.u.)       :      2.01202
Magnitude (Debye)      :      5.11414



--------------------
Rotational spectrum 
--------------------
 
Rotational constants in cm-1:     0.000000     0.196398     0.196398 
Rotational constants in MHz :     0.000000  5887.862686  5887.862686 

 Dipole components along the rotational axes: 
x,y,z [a.u.] :    -2.012018     0.000000     0.000000 
x,y,z [Debye]:    -5.114143     0.000000     0.000000 

 

Timings for individual modules:

Sum of individual times         ...        8.248 sec (=   0.137 min)
GTO integral calculation        ...        3.674 sec (=   0.061 min)  44.5 %
SCF iterations                  ...        4.575 sec (=   0.076 min)  55.5 %
                             ****ORCA TERMINATED NORMALLY****
TOTAL RUN TIME: 0 days 0 hours 0 minutes 8 seconds 850 msec
