
                                 *****************
                                 * O   R   C   A *
                                 *****************

           --- An Ab Initio, DFT and Semiempirical electronic structure package ---

                  #######################################################
                  #                        -***-                        #
                  #          Department of theory and spectroscopy      #
                  #               Directorship: Frank Neese             #
                  #        Max Planck Institute fuer Kohlenforschung    #
                  #                Kaiser Wilhelm Platz 1               #
                  #                 D-45470 Muelheim/Ruhr               #
                  #                      Germany                        #
                  #                                                     #
                  #                  All rights reserved                #
                  #                        -***-                        #
                  #######################################################


                         Program Version 4.2.0 -  RELEASE  -


 With contributions from (in alphabetic order):
   Daniel Aravena         : Magnetic Suceptibility
   Michael Atanasov       : Ab Initio Ligand Field Theory (pilot matlab implementation)
   Alexander A. Auer      : GIAO ZORA, VPT2
   Ute Becker             : Parallelization
   Giovanni Bistoni       : ED, misc. LED, open-shell LED, HFLED
   Martin Brehm           : Molecular dynamics
   Dmytro Bykov           : SCF Hessian
   Vijay G. Chilkuri      : MRCI spin determinant printing, contributions to CSF-ICE
   Dipayan Datta          : RHF DLPNO-CCSD density
   Achintya Kumar Dutta   : EOM-CC, STEOM-CC
   Dmitry Ganyushin       : Spin-Orbit,Spin-Spin,Magnetic field MRCI
   Miquel Garcia          : C-PCM Hessian, Gaussian charge scheme
   Yang Guo               : DLPNO-NEVPT2, CIM, IAO-localization
   Andreas Hansen         : Spin unrestricted coupled pair/coupled cluster methods
   Benjamin Helmich-Paris : CASSCF linear response (MC-RPA)
   Lee Huntington         : MR-EOM, pCC
   Robert Izsak           : Overlap fitted RIJCOSX, COSX-SCS-MP3, EOM
   Christian Kollmar      : KDIIS, OOCD, Brueckner-CCSD(T), CCSD density
   Simone Kossmann        : Meta GGA functionals, TD-DFT gradient, OOMP2, MP2 Hessian
   Martin Krupicka        : AUTO-CI
   Lucas Lang             : DCDCAS
   Dagmar Lenk            : GEPOL surface, SMD
   Dimitrios Liakos       : Extrapolation schemes; Compound Job, initial MDCI parallelization
   Dimitrios Manganas     : Further ROCIS development; embedding schemes
   Dimitrios Pantazis     : SARC Basis sets
   Taras Petrenko         : DFT Hessian,TD-DFT gradient, ASA, ECA, R-Raman, ABS, FL, XAS/XES, NRVS
   Peter Pinski           : DLPNO-MP2, DLPNO-MP2 Gradient
   Christoph Reimann      : Effective Core Potentials
   Marius Retegan         : Local ZFS, SOC
   Christoph Riplinger    : Optimizer, TS searches, QM/MM, DLPNO-CCSD(T), (RO)-DLPNO pert. Triples
   Tobias Risthaus        : Range-separated hybrids, TD-DFT gradient, RPA, STAB
   Michael Roemelt        : Original ROCIS implementation
   Masaaki Saitow         : Open-shell DLPNO-CCSD energy and density
   Barbara Sandhoefer     : DKH picture change effects
   Avijit Sen             : IP-ROCIS
   Kantharuban Sivalingam : CASSCF convergence, NEVPT2, FIC-MRCI
   Bernardo de Souza      : ESD, SOC TD-DFT
   Georgi Stoychev        : AutoAux, RI-MP2 NMR
   Willem Van den Heuvel  : Paramagnetic NMR
   Boris Wezisla          : Elementary symmetry handling
   Frank Wennmohs         : Technical directorship


 We gratefully acknowledge several colleagues who have allowed us to
 interface, adapt or use parts of their codes:
   Stefan Grimme, W. Hujo, H. Kruse,             : VdW corrections, initial TS optimization,
                  C. Bannwarth                     DFT functionals, gCP, sTDA/sTD-DF
   Ed Valeev, F. Pavosevic, A. Kumar             : LibInt (2-el integral package), F12 methods
   Garnet Chan, S. Sharma, J. Yang, R. Olivares  : DMRG
   Ulf Ekstrom                                   : XCFun DFT Library
   Mihaly Kallay                                 : mrcc  (arbitrary order and MRCC methods)
   Andreas Klamt, Michael Diedenhofen            : otool_cosmo (COSMO solvation model)
   Jiri Pittner, Ondrej Demel                    : Mk-CCSD
   Frank Weinhold                                : gennbo (NPA and NBO analysis)
   Christopher J. Cramer and Donald G. Truhlar   : smd solvation model
   Lars Goerigk                                  : TD-DFT with DH, B97 family of functionals
   V. Asgeirsson, H. Jonsson                     : NEB implementation
   FAccTs GmbH                                   : IRC, NEB, NEB-TS, Multilevel, MM, QM/MM, CI optimization
   S Lehtola, MJT Oliveira, MAL Marques          : LibXC Library


 Your calculation uses the libint2 library for the computation of 2-el integrals
 For citations please refer to: http://libint.valeyev.net

 Your ORCA version has been built with support for libXC version: 4.2.3
 For citations please refer to: https://tddft.org/programs/libxc/

 This ORCA versions uses:
   CBLAS   interface :  Fast vector & matrix operations
   LAPACKE interface :  Fast linear algebra routines
   SCALAPACK package :  Parallel linear algebra routines


Your calculation utilizes the atom-pairwise dispersion correction
with the Becke-Johnson damping scheme (D3BJ)
Cite in your paper:
S.Grimme, S.Ehrlich, L.Goerigk, J Comput Chem, (2011), 32, 1456–1465 
S.Grimme, J.Antony, S.Ehrlich and H.Krieg, J.Chem.Phys., 132, (2010), 154104 
   

----- Orbital basis set information -----
Your calculation utilizes the basis: aug-cc-pVTZ 
    H, B-Ne : Obtained from the ccRepo (grant-hill.group.shef.ac.uk/ccrepo) Feb. 2017
              R. A. Kendall, T. H. Dunning, Jr., R. J. Harrison, J. Chem. Phys. 96, 6796 (1992)
         He : Obtained from the ccRepo (grant-hill.group.shef.ac.uk/ccrepo) Feb. 2017
              D. E. Woon, T. H. Dunning, Jr., J. Chem. Phys. 100, 2975 (1994)
  Li-Be, Na : Obtained from the ccRepo (grant-hill.group.shef.ac.uk/ccrepo) Feb. 2017
              B. P. Prascher, D. E. Woon, K. A. Peterson, T. H. Dunning, Jr., A. K. Wilson, Theor. Chem. Acc. 128, 69 (2011)
         Mg : Obtained from the Peterson Research Group Website (tyr0.chem.wsu.edu/~kipeters) Feb. 2017
              B. P. Prascher, D. E. Woon, K. A. Peterson, T. H. Dunning, Jr., A. K. Wilson, Theor. Chem. Acc. 128, 69 (2011)
      Al-Ar : Obtained from the ccRepo (grant-hill.group.shef.ac.uk/ccrepo) Feb. 2017
              D. E. Woon, T. H. Dunning, Jr., J. Chem. Phys. 98, 1358 (1993)
      Sc-Zn : Obtained from the ccRepo (grant-hill.group.shef.ac.uk/ccrepo) Feb. 2017
              N. B. Balabanov, K. A. Peterson, J. Chem. Phys. 123, 064107 (2005)
              N. B. Balabanov, K. A. Peterson, J. Chem. Phys. 125, 074110 (2006)
      Ga-Kr : Obtained from the ccRepo (grant-hill.group.shef.ac.uk/ccrepo) Feb. 2017
              A. K. Wilson, D. E. Woon, K. A. Peterson, T. H. Dunning, Jr., J. Chem. Phys. 110, 7667 (1999)
     Ag, Au : Obtained from the Peterson Research Group Website (tyr0.chem.wsu.edu/~kipeters) Feb. 2017
              K. A. Peterson, C. Puzzarini, Theor. Chem. Acc. 114, 283 (2005)

----- AuxJ basis set information -----
Your calculation utilizes the auxiliary basis: def2/J
   F. Weigend, Phys. Chem. Chem. Phys. 8, 1057 (2006).

================================================================================
                                        WARNINGS
                       Please study these warnings very carefully!
================================================================================


WARNING: your system is open-shell and RHF/RKS was chosen
  ===> : WILL SWITCH to UHF/UKS


INFO   : the flag for use of LIBINT has been found!

================================================================================
                                       INPUT FILE
================================================================================
NAME = 09_TiCl.in
|  1> #
|  2> # 09_TiCl tpss/aug-cc-pvtz
|  3> #
|  4> ! tpss d3bj aug-cc-pvtz def2/j grid4 nofinalgrid
|  5> 
|  6> *xyz 0 4
|  7>   Ti  0.00000000000000      0.00000000000000     -0.11680209456005
|  8>   Cl  0.00000000000000      0.00000000000000      2.11680209456005
|  9> *
| 10> 
| 11> %pal
| 12> nprocs 24
| 13> end
| 14> 
| 15> 
| 16>                          ****END OF INPUT****
================================================================================

                       ****************************
                       * Single Point Calculation *
                       ****************************

---------------------------------
CARTESIAN COORDINATES (ANGSTROEM)
---------------------------------
  Ti     0.000000    0.000000   -0.116802
  Cl     0.000000    0.000000    2.116802

----------------------------
CARTESIAN COORDINATES (A.U.)
----------------------------
  NO LB      ZA    FRAG     MASS         X           Y           Z
   0 Ti   22.0000    0    47.900    0.000000    0.000000   -0.220724
   1 Cl   17.0000    0    35.453    0.000000    0.000000    4.000176

--------------------------------
INTERNAL COORDINATES (ANGSTROEM)
--------------------------------
 Ti     0   0   0     0.000000000000     0.00000000     0.00000000
 Cl     1   0   0     2.233604189120     0.00000000     0.00000000

---------------------------
INTERNAL COORDINATES (A.U.)
---------------------------
 Ti     0   0   0     0.000000000000     0.00000000     0.00000000
 Cl     1   0   0     4.220900209016     0.00000000     0.00000000

---------------------
BASIS SET INFORMATION
---------------------
There are 2 groups of distinct atoms

 Group   1 Type Ti  : 116s77p23d3f2g contracted to 8s7p5d3f2g pattern {19191919191911/151515151511/77711/111/11}
 Group   2 Type Cl  : 42s17p3d2f contracted to 6s5p3d2f pattern {131313111/77111/111/11}

Atom   0Ti   basis set group =>   1
Atom   1Cl   basis set group =>   2
---------------------------------
AUXILIARY/J BASIS SET INFORMATION
---------------------------------
There are 2 groups of distinct atoms

 Group   1 Type Ti  : 19s5p5d3f3g contracted to 8s5p5d2f3g pattern {121111111/11111/11111/21/111}
 Group   2 Type Cl  : 14s5p5d2f1g contracted to 8s4p3d1f1g pattern {71111111/2111/311/2/1}

Atom   0Ti   basis set group =>   1
Atom   1Cl   basis set group =>   2


           ************************************************************
           *        Program running with 24 parallel MPI-processes    *
           *              working on a common directory               *
           ************************************************************
------------------------------------------------------------------------------
                           ORCA GTO INTEGRAL CALCULATION
                           -- RI-GTO INTEGRALS CHOSEN --
------------------------------------------------------------------------------

                         BASIS SET STATISTICS AND STARTUP INFO

Gaussian basis set:
 # of primitive gaussian shells          ...  285
 # of primitive gaussian functions       ...  623
 # of contracted shells                  ...   41
 # of contracted basis functions         ...  143
 Highest angular momentum                ...    4
 Maximum contraction depth               ...   19
Auxiliary gaussian basis set:
 # of primitive gaussian shells          ...   62
 # of primitive gaussian functions       ...  184
 # of contracted shells                  ...   40
 # of contracted aux-basis functions     ...  140
 Highest angular momentum                ...    4
 Maximum contraction depth               ...   12
Ratio of auxiliary to basis functions    ...  0.98
Integral package used                  ... LIBINT
 One Electron integrals                  ... done
 Ordering auxiliary basis shells         ... done
 Integral threshhold             Thresh  ...  1.000e-10
 Primitive cut-off               TCut    ...  1.000e-11
 Pre-screening matrix                    ... done
 Shell pair data                         ... 
 Ordering of the shell pairs             ... done (   0.000 sec) 861 of 861 pairs
 Determination of significant pairs      ... done (   0.000 sec)
 Creation of shell pair data             ... done (   0.001 sec)
 Storage of shell pair data              ... done (   0.044 sec)
 Shell pair data done in (   0.045 sec)
 Computing two index integrals           ... done
 Cholesky decomposition of the V-matrix  ... done


Timings:
 Total evaluation time                   ...   3.173 sec (  0.053 min)
 One electron matrix time                ...   0.048 sec (  0.001 min) =  1.5%
 Schwartz matrix evaluation time         ...   3.045 sec (  0.051 min) = 96.0%
 Two index repulsion integral time       ...   0.001 sec (  0.000 min) =  0.0%
 Cholesky decomposition of V             ...   0.001 sec (  0.000 min) =  0.0%
 Three index repulsion integral time     ...   0.000 sec (  0.000 min) =  0.0%



           ************************************************************
           *        Program running with 24 parallel MPI-processes    *
           *              working on a common directory               *
           ************************************************************
-------------------------------------------------------------------------------
                                 ORCA SCF
-------------------------------------------------------------------------------

------------
SCF SETTINGS
------------
Hamiltonian:
 Density Functional     Method          .... DFT(GTOs)
 Exchange Functional    Exchange        .... TPSS
 Correlation Functional Correlation     .... TPSS
 LDA part of GGA corr.  LDAOpt          .... PW91-LDA
 Gradients option       PostSCFGGA      .... off
   Density functional embedding theory  .... OFF
   NL short-range parameter             ....  5.000000
 RI-approximation to the Coulomb term is turned on
   Number of auxiliary basis functions  .... 140


General Settings:
 Integral files         IntName         .... 09_TiCl
 Hartree-Fock type      HFTyp           .... UHF
 Total Charge           Charge          ....    0
 Multiplicity           Mult            ....    4
 Number of Electrons    NEL             ....   39
 Basis Dimension        Dim             ....  143
 Nuclear Repulsion      ENuc            ....     88.6066908668 Eh

Convergence Acceleration:
 DIIS                   CNVDIIS         .... on
   Start iteration      DIISMaxIt       ....    12
   Startup error        DIISStart       ....  0.200000
   # of expansion vecs  DIISMaxEq       ....     5
   Bias factor          DIISBfac        ....   1.050
   Max. coefficient     DIISMaxC        ....  10.000
 Newton-Raphson         CNVNR           .... off
 SOSCF                  CNVSOSCF        .... off
 Level Shifting         CNVShift        .... on
   Level shift para.    LevelShift      ....    0.2500
   Turn off err/grad.   ShiftErr        ....    0.0010
 Zerner damping         CNVZerner       .... off
 Static damping         CNVDamp         .... on
   Fraction old density DampFac         ....    0.7000
   Max. Damping (<1)    DampMax         ....    0.9800
   Min. Damping (>=0)   DampMin         ....    0.0000
   Turn off err/grad.   DampErr         ....    0.1000
 Fernandez-Rico         CNVRico         .... off

SCF Procedure:
 Maximum # iterations   MaxIter         ....   125
 SCF integral mode      SCFMode         .... Direct
   Integral package                     .... LIBINT
 Reset frequency        DirectResetFreq ....    20
 Integral Threshold     Thresh          ....  1.000e-10 Eh
 Primitive CutOff       TCut            ....  1.000e-11 Eh

Convergence Tolerance:
 Convergence Check Mode ConvCheckMode   .... Total+1el-Energy
 Convergence forced     ConvForced      .... 0
 Energy Change          TolE            ....  1.000e-06 Eh
 1-El. energy change                    ....  1.000e-03 Eh
 DIIS Error             TolErr          ....  1.000e-06


Diagonalization of the overlap matrix:
Smallest eigenvalue                        ... 4.724e-05
Time for diagonalization                   ...    0.004 sec
Threshold for overlap eigenvalues          ... 1.000e-08
Number of eigenvalues below threshold      ... 0
Time for construction of square roots      ...    0.002 sec
Total time needed                          ...    0.006 sec

-------------------
DFT GRID GENERATION
-------------------

General Integration Accuracy     IntAcc      ...  4.670
Radial Grid Type                 RadialGrid  ... Gauss-Chebyshev
Angular Grid (max. acc.)         AngularGrid ... Lebedev-302
Angular grid pruning method      GridPruning ... 3 (G Style)
Weight generation scheme         WeightScheme... Becke
Basis function cutoff            BFCut       ...    1.0000e-10
Integration weight cutoff        WCut        ...    1.0000e-14
Grids for H and He will be reduced by one unit

# of grid points (after initial pruning)     ...  16402 (   0.0 sec)
# of grid points (after weights+screening)   ...  16375 (   0.0 sec)
nearest neighbour list constructed           ...    0.0 sec
Grid point re-assignment to atoms done       ...    0.0 sec
Grid point division into batches done        ...    0.1 sec
Reduced shell lists constructed in    0.1 sec

Total number of grid points                  ...    16375
Total number of batches                      ...      257
Average number of points per batch           ...       63
Average number of grid points per atom       ...     8188
Average number of shells per batch           ...    17.83 (43.50%)
Average number of basis functions per batch  ...    49.50 (34.62%)
Average number of large shells per batch     ...    11.08 (62.15%)
Average number of large basis fcns per batch ...    32.25 (65.15%)
Maximum spatial batch extension              ...  24.49, 24.19, 18.13 au
Average spatial batch extension              ...   0.85,  0.83,  0.66 au

Time for grid setup =    0.163 sec

------------------------------
INITIAL GUESS: MODEL POTENTIAL
------------------------------
Loading Hartree-Fock densities                     ... done
Calculating cut-offs                               ... done
Setting up the integral package                    ... done
Initializing the effective Hamiltonian             ... done
Starting the Coulomb interaction                   ... done (   0.0 sec)
Reading the grid                                   ... done
Mapping shells                                     ... done
Starting the XC term evaluation                    ... done (   0.0 sec)
  promolecular density results
     # of electrons  =     39.000003298
     EX              =    -68.216507305
     EC              =     -1.555239871
     EX+EC           =    -69.771747176
Transforming the Hamiltonian                       ... done (   0.0 sec)
Diagonalizing the Hamiltonian                      ... done (   0.0 sec)
Back transforming the eigenvectors                 ... done (   0.0 sec)
Now organizing SCF variables                       ... done
                      ------------------
                      INITIAL GUESS DONE (   0.3 sec)
                      ------------------
--------------
SCF ITERATIONS
--------------
ITER       Energy         Delta-E        Max-DP      RMS-DP      [F,P]     Damp
               ***  Starting incremental Fock matrix formation  ***
  0  -1309.6839491804   0.000000000000 0.14865647  0.00254282  0.0983167 0.7000
  1  -1309.7075189635  -0.023569783103 0.05441408  0.00108556  0.0465506 0.7000
                               ***Turning on DIIS***
  2  -1309.7167659317  -0.009246968189 0.07560723  0.00135279  0.0254279 0.0000
  3  -1309.7287339327  -0.011968000950 0.04259044  0.00089702  0.0310155 0.0000
  4  -1309.7334534606  -0.004719527908 0.03480209  0.00066518  0.0137381 0.0000
  5  -1309.7340566739  -0.000603213304 0.01154834  0.00026043  0.0055156 0.0000
  6  -1309.7342097613  -0.000153087426 0.00442529  0.00008455  0.0013668 0.0000
  7  -1309.7342384963  -0.000028734956 0.00799265  0.00009323  0.0007325 0.0000
  8  -1309.7342591720  -0.000020675716 0.00437218  0.00004736  0.0006873 0.0000
  9  -1309.7342609314  -0.000001759442 0.00158270  0.00001919  0.0003696 0.0000
 10  -1309.7342612460  -0.000000314551 0.00125062  0.00001329  0.0002108 0.0000
 11  -1309.7342614857  -0.000000239736 0.00025547  0.00000435  0.0000570 0.0000
 12  -1309.7342614095   0.000000076221 0.00012885  0.00000176  0.0000323 0.0000
                 **** Energy Check signals convergence ****

               *****************************************************
               *                     SUCCESS                       *
               *           SCF CONVERGED AFTER  13 CYCLES          *
               *****************************************************


----------------
TOTAL SCF ENERGY
----------------

Total Energy       :        -1309.73426154 Eh          -35639.68114 eV

Components:
Nuclear Repulsion  :           88.60669087 Eh            2411.11064 eV
Electronic Energy  :        -1398.34095241 Eh          -38050.79178 eV
One Electron Energy:        -1977.91896435 Eh          -53821.91127 eV
Two Electron Energy:          579.57801194 Eh           15771.11949 eV

Virial components:
Potential Energy   :        -2616.76247858 Eh          -71205.72707 eV
Kinetic Energy     :         1307.02821704 Eh           35566.04593 eV
Virial Ratio       :            2.00207038


DFT components:
N(Alpha)           :       20.999995182597 electrons
N(Beta)            :       17.999996137778 electrons
N(Total)           :       38.999991320375 electrons
E(X)               :      -68.893031120713 Eh       
E(C)               :       -1.560819404916 Eh       
E(XC)              :      -70.453850525629 Eh       
DFET-embed. en.    :        0.000000000000 Eh       

---------------
SCF CONVERGENCE
---------------

  Last Energy change         ...   -1.2900e-07  Tolerance :   1.0000e-06
  Last MAX-Density change    ...    2.0243e-05  Tolerance :   1.0000e-05
  Last RMS-Density change    ...    2.4040e-07  Tolerance :   1.0000e-06
  Last DIIS Error            ...    3.2888e-06  Tolerance :   1.0000e-06

             **** THE GBW FILE WAS UPDATED (09_TiCl.gbw) ****
             **** DENSITY FILE WAS UPDATED (09_TiCl.scfp) ****
             **** ENERGY FILE WAS UPDATED (09_TiCl.en.tmp) ****
----------------------
UHF SPIN CONTAMINATION
----------------------

Warning: in a DFT calculation there is little theoretical justification to 
         calculate <S**2> as in Hartree-Fock theory. We will do it anyways
         but you should keep in mind that the values have only limited relevance

Expectation value of <S**2>     :     3.758079
Ideal value S*(S+1) for S=1.5   :     3.750000
Deviation                       :     0.008079

             **** THE GBW FILE WAS UPDATED (09_TiCl.gbw) ****
             **** DENSITY FILE WAS UPDATED (09_TiCl.scfp) ****
----------------
ORBITAL ENERGIES
----------------
                 SPIN UP ORBITALS
  NO   OCC          E(Eh)            E(eV) 
   0   1.0000    -178.116680     -4846.8013 
   1   1.0000    -100.983079     -2747.8893 
   2   1.0000     -19.510025      -530.8948 
   3   1.0000     -16.246491      -442.0895 
   4   1.0000     -16.233921      -441.7475 
   5   1.0000     -16.233921      -441.7475 
   6   1.0000      -9.208863      -250.5859 
   7   1.0000      -6.983272      -190.0245 
   8   1.0000      -6.982142      -189.9938 
   9   1.0000      -6.982142      -189.9938 
  10   1.0000      -2.239847       -60.9493 
  11   1.0000      -1.395769       -37.9808 
  12   1.0000      -1.374785       -37.4098 
  13   1.0000      -1.374785       -37.4098 
  14   1.0000      -0.710764       -19.3409 
  15   1.0000      -0.302587        -8.2338 
  16   1.0000      -0.271760        -7.3950 
  17   1.0000      -0.271760        -7.3950 
  18   1.0000      -0.157651        -4.2899 
  19   1.0000      -0.119044        -3.2393 
  20   1.0000      -0.119042        -3.2393 
  21   0.0000      -0.103256        -2.8097 
  22   0.0000      -0.103256        -2.8097 
  23   0.0000      -0.099884        -2.7180 
  24   0.0000      -0.038818        -1.0563 
  25   0.0000      -0.038818        -1.0563 
  26   0.0000      -0.003360        -0.0914 
  27   0.0000       0.000944         0.0257 
  28   0.0000       0.018382         0.5002 
  29   0.0000       0.018382         0.5002 
  30   0.0000       0.026417         0.7188 
  31   0.0000       0.026420         0.7189 
  32   0.0000       0.030103         0.8192 
  33   0.0000       0.030103         0.8192 
  34   0.0000       0.030223         0.8224 
  35   0.0000       0.050013         1.3609 
  36   0.0000       0.076943         2.0937 
  37   0.0000       0.110148         2.9973 
  38   0.0000       0.110148         2.9973 
  39   0.0000       0.116013         3.1569 
  40   0.0000       0.121287         3.3004 
  41   0.0000       0.121290         3.3005 
  42   0.0000       0.122881         3.3438 
  43   0.0000       0.124102         3.3770 
  44   0.0000       0.124102         3.3770 
  45   0.0000       0.135190         3.6787 
  46   0.0000       0.135190         3.6787 
  47   0.0000       0.184805         5.0288 
  48   0.0000       0.200952         5.4682 
  49   0.0000       0.200954         5.4682 
  50   0.0000       0.229045         6.2326 
  51   0.0000       0.229045         6.2326 
  52   0.0000       0.256977         6.9927 
  53   0.0000       0.282967         7.6999 
  54   0.0000       0.282967         7.6999 
  55   0.0000       0.311296         8.4708 
  56   0.0000       0.335173         9.1205 
  57   0.0000       0.335178         9.1207 
  58   0.0000       0.338129         9.2010 
  59   0.0000       0.338129         9.2010 
  60   0.0000       0.368858        10.0371 
  61   0.0000       0.401729        10.9316 
  62   0.0000       0.494812        13.4645 
  63   0.0000       0.494812        13.4645 
  64   0.0000       0.495009        13.4699 
  65   0.0000       0.495010        13.4699 
  66   0.0000       0.530819        14.4443 
  67   0.0000       0.530819        14.4443 
  68   0.0000       0.601243        16.3607 
  69   0.0000       0.680307        18.5121 
  70   0.0000       0.680307        18.5121 
  71   0.0000       0.698812        19.0157 
  72   0.0000       0.734051        19.9745 
  73   0.0000       0.734051        19.9745 
  74   0.0000       0.772575        21.0228 
  75   0.0000       0.772575        21.0228 
  76   0.0000       0.773980        21.0611 
  77   0.0000       0.821410        22.3517 
  78   0.0000       0.832639        22.6573 
  79   0.0000       0.832639        22.6573 
  80   0.0000       0.866489        23.5784 
  81   0.0000       0.866522        23.5793 
  82   0.0000       0.877456        23.8768 
  83   0.0000       0.877464        23.8770 
  84   0.0000       0.880005        23.9462 
  85   0.0000       0.880005        23.9462 
  86   0.0000       0.891010        24.2456 
  87   0.0000       0.891010        24.2456 
  88   0.0000       0.926835        25.2205 
  89   0.0000       0.934982        25.4421 
  90   0.0000       0.934988        25.4423 
  91   0.0000       1.088806        29.6279 
  92   0.0000       1.088806        29.6279 
  93   0.0000       1.184650        32.2360 
  94   0.0000       1.184650        32.2360 
  95   0.0000       1.226175        33.3659 
  96   0.0000       1.342809        36.5397 
  97   0.0000       1.342812        36.5398 
  98   0.0000       1.381799        37.6007 
  99   0.0000       1.582612        43.0651 
 100   0.0000       1.582612        43.0651 
 101   0.0000       1.815628        49.4057 
 102   0.0000       1.847326        50.2683 
 103   0.0000       1.847326        50.2683 
 104   0.0000       1.865564        50.7646 
 105   0.0000       2.056942        55.9722 
 106   0.0000       2.056942        55.9722 
 107   0.0000       2.179753        59.3141 
 108   0.0000       2.179753        59.3141 
 109   0.0000       2.190624        59.6099 
 110   0.0000       2.234792        60.8118 
 111   0.0000       2.235082        60.8197 
 112   0.0000       2.313813        62.9620 
 113   0.0000       2.343119        63.7595 
 114   0.0000       2.343119        63.7595 
 115   0.0000       2.516407        68.4749 
 116   0.0000       2.516407        68.4749 
 117   0.0000       2.535292        68.9888 
 118   0.0000       2.763902        75.2096 
 119   0.0000       2.763902        75.2096 
 120   0.0000       2.845143        77.4203 
 121   0.0000       2.845203        77.4219 
 122   0.0000       2.870170        78.1013 
 123   0.0000       2.900969        78.9394 
 124   0.0000       2.900969        78.9394 
 125   0.0000       3.032985        82.5317 
 126   0.0000       3.203395        87.1688 
 127   0.0000       3.203412        87.1693 
 128   0.0000       3.214805        87.4793 
 129   0.0000       3.214805        87.4793 
 130   0.0000       3.238268        88.1178 
 131   0.0000       3.238292        88.1184 
 132   0.0000       3.324452        90.4630 
 133   0.0000       3.324452        90.4630 
 134   0.0000       3.390312        92.2551 
 135   0.0000       3.390312        92.2551 
 136   0.0000       3.423058        93.1461 
 137   0.0000       3.423107        93.1475 
 138   0.0000       3.560261        96.8796 
 139   0.0000       3.615294        98.3771 
 140   0.0000       3.615294        98.3771 
 141   0.0000       4.151671       112.9727 
 142   0.0000       6.337610       172.4551 

                 SPIN DOWN ORBITALS
  NO   OCC          E(Eh)            E(eV) 
   0   1.0000    -178.116181     -4846.7877 
   1   1.0000    -100.983643     -2747.9046 
   2   1.0000     -19.489100      -530.3254 
   3   1.0000     -16.237342      -441.8405 
   4   1.0000     -16.213139      -441.1819 
   5   1.0000     -16.213139      -441.1819 
   6   1.0000      -9.209317      -250.5982 
   7   1.0000      -6.984111      -190.0473 
   8   1.0000      -6.982763      -190.0107 
   9   1.0000      -6.982763      -190.0107 
  10   1.0000      -2.170794       -59.0703 
  11   1.0000      -1.354565       -36.8596 
  12   1.0000      -1.287860       -35.0445 
  13   1.0000      -1.287860       -35.0445 
  14   1.0000      -0.712948       -19.4003 
  15   1.0000      -0.299191        -8.1414 
  16   1.0000      -0.271414        -7.3855 
  17   1.0000      -0.271414        -7.3855 
  18   0.0000      -0.094864        -2.5814 
  19   0.0000      -0.064822        -1.7639 
  20   0.0000      -0.064822        -1.7639 
  21   0.0000      -0.058954        -1.6042 
  22   0.0000      -0.027716        -0.7542 
  23   0.0000      -0.027676        -0.7531 
  24   0.0000      -0.000990        -0.0269 
  25   0.0000      -0.000989        -0.0269 
  26   0.0000       0.011322         0.3081 
  27   0.0000       0.013955         0.3797 
  28   0.0000       0.034140         0.9290 
  29   0.0000       0.034140         0.9290 
  30   0.0000       0.042639         1.1603 
  31   0.0000       0.042639         1.1603 
  32   0.0000       0.043325         1.1789 
  33   0.0000       0.046667         1.2699 
  34   0.0000       0.046674         1.2701 
  35   0.0000       0.060481         1.6458 
  36   0.0000       0.103286         2.8106 
  37   0.0000       0.120714         3.2848 
  38   0.0000       0.120714         3.2848 
  39   0.0000       0.121149         3.2966 
  40   0.0000       0.146086         3.9752 
  41   0.0000       0.150331         4.0907 
  42   0.0000       0.150332         4.0907 
  43   0.0000       0.154467         4.2033 
  44   0.0000       0.154518         4.2046 
  45   0.0000       0.158720         4.3190 
  46   0.0000       0.158720         4.3190 
  47   0.0000       0.203314         5.5325 
  48   0.0000       0.219117         5.9625 
  49   0.0000       0.219317         5.9679 
  50   0.0000       0.264765         7.2046 
  51   0.0000       0.264765         7.2046 
  52   0.0000       0.275995         7.5102 
  53   0.0000       0.301267         8.1979 
  54   0.0000       0.301267         8.1979 
  55   0.0000       0.325911         8.8685 
  56   0.0000       0.347720         9.4619 
  57   0.0000       0.347720         9.4619 
  58   0.0000       0.349958         9.5228 
  59   0.0000       0.350089         9.5264 
  60   0.0000       0.382578        10.4105 
  61   0.0000       0.429753        11.6942 
  62   0.0000       0.533873        14.5274 
  63   0.0000       0.533873        14.5274 
  64   0.0000       0.549424        14.9506 
  65   0.0000       0.549456        14.9515 
  66   0.0000       0.552990        15.0476 
  67   0.0000       0.552990        15.0476 
  68   0.0000       0.623941        16.9783 
  69   0.0000       0.702441        19.1144 
  70   0.0000       0.702441        19.1144 
  71   0.0000       0.713890        19.4259 
  72   0.0000       0.736148        20.0316 
  73   0.0000       0.736150        20.0317 
  74   0.0000       0.777081        21.1455 
  75   0.0000       0.777081        21.1455 
  76   0.0000       0.777306        21.1516 
  77   0.0000       0.834439        22.7063 
  78   0.0000       0.856525        23.3072 
  79   0.0000       0.856525        23.3072 
  80   0.0000       0.901292        24.5254 
  81   0.0000       0.901292        24.5254 
  82   0.0000       0.901339        24.5267 
  83   0.0000       0.901617        24.5342 
  84   0.0000       0.904563        24.6144 
  85   0.0000       0.904565        24.6145 
  86   0.0000       0.943212        25.6661 
  87   0.0000       0.945743        25.7350 
  88   0.0000       0.945743        25.7350 
  89   0.0000       0.950087        25.8532 
  90   0.0000       0.950108        25.8538 
  91   0.0000       1.099832        29.9280 
  92   0.0000       1.099832        29.9280 
  93   0.0000       1.196608        32.5613 
  94   0.0000       1.196608        32.5613 
  95   0.0000       1.233355        33.5613 
  96   0.0000       1.356801        36.9204 
  97   0.0000       1.356801        36.9204 
  98   0.0000       1.405974        38.2585 
  99   0.0000       1.593377        43.3580 
 100   0.0000       1.593377        43.3580 
 101   0.0000       1.827331        49.7242 
 102   0.0000       1.902158        51.7604 
 103   0.0000       1.910059        51.9753 
 104   0.0000       1.910059        51.9753 
 105   0.0000       2.135064        58.0980 
 106   0.0000       2.135095        58.0989 
 107   0.0000       2.219057        60.3836 
 108   0.0000       2.219057        60.3836 
 109   0.0000       2.233361        60.7729 
 110   0.0000       2.233660        60.7810 
 111   0.0000       2.242043        61.0091 
 112   0.0000       2.326606        63.3102 
 113   0.0000       2.343270        63.7636 
 114   0.0000       2.343270        63.7636 
 115   0.0000       2.523177        68.6591 
 116   0.0000       2.523177        68.6591 
 117   0.0000       2.558665        69.6248 
 118   0.0000       2.761619        75.1475 
 119   0.0000       2.761619        75.1475 
 120   0.0000       2.843949        77.3878 
 121   0.0000       2.844021        77.3897 
 122   0.0000       2.875292        78.2407 
 123   0.0000       2.902216        78.9733 
 124   0.0000       2.902216        78.9733 
 125   0.0000       3.056909        83.1827 
 126   0.0000       3.261490        88.7497 
 127   0.0000       3.261490        88.7497 
 128   0.0000       3.271262        89.0156 
 129   0.0000       3.271301        89.0166 
 130   0.0000       3.278314        89.2075 
 131   0.0000       3.278394        89.2096 
 132   0.0000       3.358233        91.3822 
 133   0.0000       3.358233        91.3822 
 134   0.0000       3.474723        94.5520 
 135   0.0000       3.474782        94.5536 
 136   0.0000       3.486241        94.8654 
 137   0.0000       3.486241        94.8654 
 138   0.0000       3.609084        98.2082 
 139   0.0000       3.666225        99.7631 
 140   0.0000       3.666225        99.7631 
 141   0.0000       4.185754       113.9001 
 142   0.0000       6.338440       172.4777 

                    ********************************
                    * MULLIKEN POPULATION ANALYSIS *
                    ********************************

--------------------------------------------
MULLIKEN ATOMIC CHARGES AND SPIN POPULATIONS
--------------------------------------------
   0 Ti:    0.364394    3.029565
   1 Cl:   -0.364394   -0.029565
Sum of atomic charges         :   -0.0000000
Sum of atomic spin populations:    3.0000000

-----------------------------------------------------
MULLIKEN REDUCED ORBITAL CHARGES AND SPIN POPULATIONS
-----------------------------------------------------
CHARGE
  0 Tis       :     6.682252  s :     6.682252
      pz      :     4.081975  p :    12.132185
      px      :     4.025105
      py      :     4.025105
      dz2     :     0.582843  d :     2.791035
      dxz     :     0.107563
      dyz     :     0.107563
      dx2y2   :     0.996533
      dxy     :     0.996533
      f0      :     0.005937  f :     0.019672
      f+1     :     0.006606
      f-1     :     0.006606
      f+2     :     0.000262
      f-2     :     0.000262
      f+3     :     0.000000
      f-3     :     0.000000
      g0      :     0.002445  g :     0.010461
      g+1     :     0.004026
      g-1     :     0.004026
      g+2     :    -0.000018
      g-2     :    -0.000018
      g+3     :     0.000000
      g-3     :     0.000000
      g+4     :     0.000000
      g-4     :     0.000000
  1 Cls       :     5.984794  s :     5.984794
      pz      :     3.657020  p :    11.362911
      px      :     3.852945
      py      :     3.852945
      dz2     :     0.001965  d :     0.014007
      dxz     :     0.003361
      dyz     :     0.003361
      dx2y2   :     0.002660
      dxy     :     0.002660
      f0      :     0.000769  f :     0.002683
      f+1     :     0.000394
      f-1     :     0.000394
      f+2     :     0.000563
      f-2     :     0.000563
      f+3     :     0.000000
      f-3     :     0.000000

SPIN
  0 Tis       :     0.566004  s :     0.566004
      pz      :     0.016627  p :     0.026214
      px      :     0.004794
      py      :     0.004794
      dz2     :     0.408642  d :     2.441918
      dxz     :     0.020105
      dyz     :     0.020105
      dx2y2   :     0.996533
      dxy     :     0.996533
      f0      :    -0.000978  f :    -0.002367
      f+1     :    -0.000957
      f-1     :    -0.000957
      f+2     :     0.000262
      f-2     :     0.000262
      f+3     :    -0.000000
      f-3     :    -0.000000
      g0      :    -0.000318  g :    -0.002204
      g+1     :    -0.000926
      g-1     :    -0.000926
      g+2     :    -0.000018
      g-2     :    -0.000018
      g+3     :    -0.000000
      g-3     :    -0.000000
      g+4     :    -0.000000
      g-4     :     0.000000
  1 Cls       :     0.024929  s :     0.024929
      pz      :    -0.017423  p :    -0.065634
      px      :    -0.024105
      py      :    -0.024105
      dz2     :     0.001883  d :     0.009009
      dxz     :     0.000903
      dyz     :     0.000903
      dx2y2   :     0.002660
      dxy     :     0.002660
      f0      :     0.000634  f :     0.002131
      f+1     :     0.000185
      f-1     :     0.000185
      f+2     :     0.000563
      f-2     :     0.000563
      f+3     :    -0.000000
      f-3     :    -0.000000


                     *******************************
                     * LOEWDIN POPULATION ANALYSIS *
                     *******************************

-------------------------------------------
LOEWDIN ATOMIC CHARGES AND SPIN POPULATIONS
-------------------------------------------
   0 Ti:   -0.205003    2.947693
   1 Cl:    0.205003    0.052307

----------------------------------------------------
LOEWDIN REDUCED ORBITAL CHARGES AND SPIN POPULATIONS
----------------------------------------------------
CHARGE
  0 Tis       :     6.514773  s :     6.514773
      pz      :     4.145559  p :    12.182715
      px      :     4.018578
      py      :     4.018578
      dz2     :     0.718747  d :     3.046990
      dxz     :     0.178995
      dyz     :     0.178995
      dx2y2   :     0.985126
      dxy     :     0.985126
      f0      :     0.128777  f :     0.310089
      f+1     :     0.089593
      f-1     :     0.089593
      f+2     :     0.001063
      f-2     :     0.001063
      f+3     :     0.000000
      f-3     :     0.000000
      g0      :     0.045809  g :     0.150437
      g+1     :     0.052087
      g-1     :     0.052087
      g+2     :     0.000227
      g-2     :     0.000227
      g+3     :     0.000000
      g-3     :     0.000000
      g+4     :     0.000000
      g-4     :     0.000000
  1 Cls       :     5.545110  s :     5.545110
      pz      :     3.727138  p :    10.984431
      px      :     3.628647
      py      :     3.628647
      dz2     :     0.124250  d :     0.186236
      dxz     :     0.022086
      dyz     :     0.022086
      dx2y2   :     0.008907
      dxy     :     0.008908
      f0      :     0.049838  f :     0.079219
      f+1     :     0.010014
      f-1     :     0.010014
      f+2     :     0.004676
      f-2     :     0.004677
      f+3     :     0.000000
      f-3     :     0.000000

SPIN
  0 Tis       :     0.539565  s :     0.539565
      pz      :     0.016935  p :     0.024743
      px      :     0.003904
      py      :     0.003904
      dz2     :     0.389935  d :     2.392427
      dxz     :     0.016120
      dyz     :     0.016120
      dx2y2   :     0.985126
      dxy     :     0.985126
      f0      :    -0.001009  f :    -0.005245
      f+1     :    -0.003181
      f-1     :    -0.003181
      f+2     :     0.001063
      f-2     :     0.001063
      f+3     :    -0.000000
      f-3     :    -0.000000
      g0      :    -0.000359  g :    -0.003797
      g+1     :    -0.001946
      g-1     :    -0.001946
      g+2     :     0.000227
      g-2     :     0.000227
      g+3     :    -0.000000
      g-3     :    -0.000000
      g+4     :    -0.000000
      g-4     :     0.000000
  1 Cls       :     0.021666  s :     0.021666
      pz      :     0.026593  p :    -0.004506
      px      :    -0.015550
      py      :    -0.015550
      dz2     :     0.004638  d :     0.023572
      dxz     :     0.000559
      dyz     :     0.000559
      dx2y2   :     0.008907
      dxy     :     0.008908
      f0      :     0.002037  f :     0.011575
      f+1     :     0.000093
      f-1     :     0.000093
      f+2     :     0.004676
      f-2     :     0.004677
      f+3     :    -0.000000
      f-3     :    -0.000000


                      *****************************
                      * MAYER POPULATION ANALYSIS *
                      *****************************

  NA   - Mulliken gross atomic population
  ZA   - Total nuclear charge
  QA   - Mulliken gross atomic charge
  VA   - Mayer's total valence
  BVA  - Mayer's bonded valence
  FA   - Mayer's free valence

  ATOM       NA         ZA         QA         VA         BVA        FA
  0 Ti    21.6356    22.0000     0.3644     4.1342     1.2324     2.9018
  1 Cl    17.3644    17.0000    -0.3644     1.2365     1.2324     0.0041

  Mayer bond orders larger than 0.100000
B(  0-Ti,  1-Cl) :   1.2324 

-------
TIMINGS
-------

Total SCF time: 0 days 0 hours 0 min 3 sec 

Total time                  ....       3.163 sec
Sum of individual times     ....       3.017 sec  ( 95.4%)

Fock matrix formation       ....       2.618 sec  ( 82.8%)
  Split-RI-J                ....       1.969 sec  ( 75.2% of F)
  XC integration            ....       0.540 sec  ( 20.6% of F)
    Basis function eval.    ....       0.074 sec  ( 13.7% of XC)
    Density eval.           ....       0.080 sec  ( 14.9% of XC)
    XC-Functional eval.     ....       0.019 sec  (  3.5% of XC)
    XC-Potential eval.      ....       0.235 sec  ( 43.6% of XC)
Diagonalization             ....       0.074 sec  (  2.3%)
Density matrix formation    ....       0.010 sec  (  0.3%)
Population analysis         ....       0.007 sec  (  0.2%)
Initial guess               ....       0.117 sec  (  3.7%)
Orbital Transformation      ....       0.000 sec  (  0.0%)
Orbital Orthonormalization  ....       0.000 sec  (  0.0%)
DIIS solution               ....       0.027 sec  (  0.8%)
Grid generation             ....       0.163 sec  (  5.2%)


-------------------------------------------------------------------------------
                          DFT DISPERSION CORRECTION                            
                                                                               
                              DFTD3 V3.1  Rev 1                                
                          USING Becke-Johnson damping                          
-------------------------------------------------------------------------------
The TPSS functional is recognized
Active option DFTDOPT                   ...         4   

molecular C6(AA) [au] = 943.932341 


            DFT-D V3
 parameters
 s6 scaling factor         :     1.0000 
 a1 scaling factor         :     0.4535 
 s8 scaling factor         :     1.9435 
 a2 scaling factor         :     4.4752 
 ad hoc parameters k1-k3   :    16.0000     1.3333    -4.0000 

 Edisp/kcal,au: -1.093220688100  -0.001742157874 
 E6   /kcal   :  -0.361921733 
 E8   /kcal   :  -0.731298955 
 % E8         :  66.893991572 

-------------------------   ----------------
Dispersion correction           -0.001742158
-------------------------   ----------------


-------------------------   --------------------
FINAL SINGLE POINT ENERGY     -1309.736003696356
-------------------------   --------------------


                            ***************************************
                            *     ORCA property calculations      *
                            ***************************************

                                    ---------------------
                                    Active property flags
                                    ---------------------
   (+) Dipole Moment


------------------------------------------------------------------------------
                       ORCA ELECTRIC PROPERTIES CALCULATION
------------------------------------------------------------------------------

Dipole Moment Calculation                       ... on
Quadrupole Moment Calculation                   ... off
Polarizability Calculation                      ... off
GBWName                                         ... 09_TiCl.gbw
Electron density file                           ... 09_TiCl.scfp
The origin for moment calculation is the CENTER OF MASS  = ( 0.000000,  0.000000  1.574575)

-------------
DIPOLE MOMENT
-------------
                                X             Y             Z
Electronic contribution:     -0.00000      -0.00000      -3.54005
Nuclear contribution   :      0.00000       0.00000       1.73863
                        -----------------------------------------
Total Dipole Moment    :     -0.00000      -0.00000      -1.80142
                        -----------------------------------------
Magnitude (a.u.)       :      1.80142
Magnitude (Debye)      :      4.57884



--------------------
Rotational spectrum 
--------------------
 
Rotational constants in cm-1:     0.000000     0.165851     0.165851 
Rotational constants in MHz :     0.000000  4972.077671  4972.077671 

 Dipole components along the rotational axes: 
x,y,z [a.u.] :    -1.801416    -0.000000    -0.000000 
x,y,z [Debye]:    -4.578835    -0.000000    -0.000000 

 

Timings for individual modules:

Sum of individual times         ...        7.224 sec (=   0.120 min)
GTO integral calculation        ...        3.714 sec (=   0.062 min)  51.4 %
SCF iterations                  ...        3.509 sec (=   0.058 min)  48.6 %
                             ****ORCA TERMINATED NORMALLY****
TOTAL RUN TIME: 0 days 0 hours 0 minutes 7 seconds 792 msec
