
                                 *****************
                                 * O   R   C   A *
                                 *****************

           --- An Ab Initio, DFT and Semiempirical electronic structure package ---

                  #######################################################
                  #                        -***-                        #
                  #          Department of theory and spectroscopy      #
                  #               Directorship: Frank Neese             #
                  #        Max Planck Institute fuer Kohlenforschung    #
                  #                Kaiser Wilhelm Platz 1               #
                  #                 D-45470 Muelheim/Ruhr               #
                  #                      Germany                        #
                  #                                                     #
                  #                  All rights reserved                #
                  #                        -***-                        #
                  #######################################################


                         Program Version 4.2.0 -  RELEASE  -


 With contributions from (in alphabetic order):
   Daniel Aravena         : Magnetic Suceptibility
   Michael Atanasov       : Ab Initio Ligand Field Theory (pilot matlab implementation)
   Alexander A. Auer      : GIAO ZORA, VPT2
   Ute Becker             : Parallelization
   Giovanni Bistoni       : ED, misc. LED, open-shell LED, HFLED
   Martin Brehm           : Molecular dynamics
   Dmytro Bykov           : SCF Hessian
   Vijay G. Chilkuri      : MRCI spin determinant printing, contributions to CSF-ICE
   Dipayan Datta          : RHF DLPNO-CCSD density
   Achintya Kumar Dutta   : EOM-CC, STEOM-CC
   Dmitry Ganyushin       : Spin-Orbit,Spin-Spin,Magnetic field MRCI
   Miquel Garcia          : C-PCM Hessian, Gaussian charge scheme
   Yang Guo               : DLPNO-NEVPT2, CIM, IAO-localization
   Andreas Hansen         : Spin unrestricted coupled pair/coupled cluster methods
   Benjamin Helmich-Paris : CASSCF linear response (MC-RPA)
   Lee Huntington         : MR-EOM, pCC
   Robert Izsak           : Overlap fitted RIJCOSX, COSX-SCS-MP3, EOM
   Christian Kollmar      : KDIIS, OOCD, Brueckner-CCSD(T), CCSD density
   Simone Kossmann        : Meta GGA functionals, TD-DFT gradient, OOMP2, MP2 Hessian
   Martin Krupicka        : AUTO-CI
   Lucas Lang             : DCDCAS
   Dagmar Lenk            : GEPOL surface, SMD
   Dimitrios Liakos       : Extrapolation schemes; Compound Job, initial MDCI parallelization
   Dimitrios Manganas     : Further ROCIS development; embedding schemes
   Dimitrios Pantazis     : SARC Basis sets
   Taras Petrenko         : DFT Hessian,TD-DFT gradient, ASA, ECA, R-Raman, ABS, FL, XAS/XES, NRVS
   Peter Pinski           : DLPNO-MP2, DLPNO-MP2 Gradient
   Christoph Reimann      : Effective Core Potentials
   Marius Retegan         : Local ZFS, SOC
   Christoph Riplinger    : Optimizer, TS searches, QM/MM, DLPNO-CCSD(T), (RO)-DLPNO pert. Triples
   Tobias Risthaus        : Range-separated hybrids, TD-DFT gradient, RPA, STAB
   Michael Roemelt        : Original ROCIS implementation
   Masaaki Saitow         : Open-shell DLPNO-CCSD energy and density
   Barbara Sandhoefer     : DKH picture change effects
   Avijit Sen             : IP-ROCIS
   Kantharuban Sivalingam : CASSCF convergence, NEVPT2, FIC-MRCI
   Bernardo de Souza      : ESD, SOC TD-DFT
   Georgi Stoychev        : AutoAux, RI-MP2 NMR
   Willem Van den Heuvel  : Paramagnetic NMR
   Boris Wezisla          : Elementary symmetry handling
   Frank Wennmohs         : Technical directorship


 We gratefully acknowledge several colleagues who have allowed us to
 interface, adapt or use parts of their codes:
   Stefan Grimme, W. Hujo, H. Kruse,             : VdW corrections, initial TS optimization,
                  C. Bannwarth                     DFT functionals, gCP, sTDA/sTD-DF
   Ed Valeev, F. Pavosevic, A. Kumar             : LibInt (2-el integral package), F12 methods
   Garnet Chan, S. Sharma, J. Yang, R. Olivares  : DMRG
   Ulf Ekstrom                                   : XCFun DFT Library
   Mihaly Kallay                                 : mrcc  (arbitrary order and MRCC methods)
   Andreas Klamt, Michael Diedenhofen            : otool_cosmo (COSMO solvation model)
   Jiri Pittner, Ondrej Demel                    : Mk-CCSD
   Frank Weinhold                                : gennbo (NPA and NBO analysis)
   Christopher J. Cramer and Donald G. Truhlar   : smd solvation model
   Lars Goerigk                                  : TD-DFT with DH, B97 family of functionals
   V. Asgeirsson, H. Jonsson                     : NEB implementation
   FAccTs GmbH                                   : IRC, NEB, NEB-TS, Multilevel, MM, QM/MM, CI optimization
   S Lehtola, MJT Oliveira, MAL Marques          : LibXC Library


 Your calculation uses the libint2 library for the computation of 2-el integrals
 For citations please refer to: http://libint.valeyev.net

 Your ORCA version has been built with support for libXC version: 4.2.3
 For citations please refer to: https://tddft.org/programs/libxc/

 This ORCA versions uses:
   CBLAS   interface :  Fast vector & matrix operations
   LAPACKE interface :  Fast linear algebra routines
   SCALAPACK package :  Parallel linear algebra routines


Your calculation utilizes the atom-pairwise dispersion correction
with the Becke-Johnson damping scheme (D3BJ)
Cite in your paper:
S.Grimme, S.Ehrlich, L.Goerigk, J Comput Chem, (2011), 32, 1456–1465 
S.Grimme, J.Antony, S.Ehrlich and H.Krieg, J.Chem.Phys., 132, (2010), 154104 
   

----- Orbital basis set information -----
Your calculation utilizes the basis: aug-cc-pVTZ 
    H, B-Ne : Obtained from the ccRepo (grant-hill.group.shef.ac.uk/ccrepo) Feb. 2017
              R. A. Kendall, T. H. Dunning, Jr., R. J. Harrison, J. Chem. Phys. 96, 6796 (1992)
         He : Obtained from the ccRepo (grant-hill.group.shef.ac.uk/ccrepo) Feb. 2017
              D. E. Woon, T. H. Dunning, Jr., J. Chem. Phys. 100, 2975 (1994)
  Li-Be, Na : Obtained from the ccRepo (grant-hill.group.shef.ac.uk/ccrepo) Feb. 2017
              B. P. Prascher, D. E. Woon, K. A. Peterson, T. H. Dunning, Jr., A. K. Wilson, Theor. Chem. Acc. 128, 69 (2011)
         Mg : Obtained from the Peterson Research Group Website (tyr0.chem.wsu.edu/~kipeters) Feb. 2017
              B. P. Prascher, D. E. Woon, K. A. Peterson, T. H. Dunning, Jr., A. K. Wilson, Theor. Chem. Acc. 128, 69 (2011)
      Al-Ar : Obtained from the ccRepo (grant-hill.group.shef.ac.uk/ccrepo) Feb. 2017
              D. E. Woon, T. H. Dunning, Jr., J. Chem. Phys. 98, 1358 (1993)
      Sc-Zn : Obtained from the ccRepo (grant-hill.group.shef.ac.uk/ccrepo) Feb. 2017
              N. B. Balabanov, K. A. Peterson, J. Chem. Phys. 123, 064107 (2005)
              N. B. Balabanov, K. A. Peterson, J. Chem. Phys. 125, 074110 (2006)
      Ga-Kr : Obtained from the ccRepo (grant-hill.group.shef.ac.uk/ccrepo) Feb. 2017
              A. K. Wilson, D. E. Woon, K. A. Peterson, T. H. Dunning, Jr., J. Chem. Phys. 110, 7667 (1999)
     Ag, Au : Obtained from the Peterson Research Group Website (tyr0.chem.wsu.edu/~kipeters) Feb. 2017
              K. A. Peterson, C. Puzzarini, Theor. Chem. Acc. 114, 283 (2005)

----- AuxJ basis set information -----
Your calculation utilizes the auxiliary basis: def2/J
   F. Weigend, Phys. Chem. Chem. Phys. 8, 1057 (2006).

================================================================================
                                        WARNINGS
                       Please study these warnings very carefully!
================================================================================


WARNING: your system is open-shell and RHF/RKS was chosen
  ===> : WILL SWITCH to UHF/UKS


INFO   : the flag for use of LIBINT has been found!

================================================================================
                                       INPUT FILE
================================================================================
NAME = 14_VF.in
|  1> #
|  2> # 14_VF tpss/aug-cc-pvtz
|  3> #
|  4> ! tpss d3bj aug-cc-pvtz def2/j grid4 nofinalgrid
|  5> 
|  6> *xyz 0 5
|  7>   V   0.00000000000000      0.00000000000000      0.09137228252025
|  8>   F   0.00000000000000      0.00000000000000      1.90862771747975
|  9> *
| 10> 
| 11> %pal
| 12> nprocs 24
| 13> end
| 14> 
| 15> 
| 16>                          ****END OF INPUT****
================================================================================

                       ****************************
                       * Single Point Calculation *
                       ****************************

---------------------------------
CARTESIAN COORDINATES (ANGSTROEM)
---------------------------------
  V      0.000000    0.000000    0.091372
  F      0.000000    0.000000    1.908628

----------------------------
CARTESIAN COORDINATES (A.U.)
----------------------------
  NO LB      ZA    FRAG     MASS         X           Y           Z
   0 V    23.0000    0    50.940    0.000000    0.000000    0.172669
   1 F     9.0000    0    18.998    0.000000    0.000000    3.606784

--------------------------------
INTERNAL COORDINATES (ANGSTROEM)
--------------------------------
 V      0   0   0     0.000000000000     0.00000000     0.00000000
 F      1   0   0     1.817255434959     0.00000000     0.00000000

---------------------------
INTERNAL COORDINATES (A.U.)
---------------------------
 V      0   0   0     0.000000000000     0.00000000     0.00000000
 F      1   0   0     3.434115087453     0.00000000     0.00000000

---------------------
BASIS SET INFORMATION
---------------------
There are 2 groups of distinct atoms

 Group   1 Type V   : 116s77p23d3f2g contracted to 8s7p5d3f2g pattern {19191919191911/151515151511/77711/111/11}
 Group   2 Type F   : 19s6p3d2f contracted to 5s4p3d2f pattern {88111/3111/111/11}

Atom   0V    basis set group =>   1
Atom   1F    basis set group =>   2
---------------------------------
AUXILIARY/J BASIS SET INFORMATION
---------------------------------
There are 2 groups of distinct atoms

 Group   1 Type V   : 19s5p5d3f3g contracted to 8s5p5d2f3g pattern {121111111/11111/11111/21/111}
 Group   2 Type F   : 12s5p4d2f1g contracted to 6s4p3d1f1g pattern {711111/2111/211/2/1}

Atom   0V    basis set group =>   1
Atom   1F    basis set group =>   2


           ************************************************************
           *        Program running with 24 parallel MPI-processes    *
           *              working on a common directory               *
           ************************************************************
------------------------------------------------------------------------------
                           ORCA GTO INTEGRAL CALCULATION
                           -- RI-GTO INTEGRALS CHOSEN --
------------------------------------------------------------------------------

                         BASIS SET STATISTICS AND STARTUP INFO

Gaussian basis set:
 # of primitive gaussian shells          ...  251
 # of primitive gaussian functions       ...  567
 # of contracted shells                  ...   39
 # of contracted basis functions         ...  139
 Highest angular momentum                ...    4
 Maximum contraction depth               ...   19
Auxiliary gaussian basis set:
 # of primitive gaussian shells          ...   59
 # of primitive gaussian functions       ...  177
 # of contracted shells                  ...   38
 # of contracted aux-basis functions     ...  138
 Highest angular momentum                ...    4
 Maximum contraction depth               ...   12
Ratio of auxiliary to basis functions    ...  0.99
Integral package used                  ... LIBINT
 One Electron integrals                  ... done
 Ordering auxiliary basis shells         ... done
 Integral threshhold             Thresh  ...  1.000e-10
 Primitive cut-off               TCut    ...  1.000e-11
 Pre-screening matrix                    ... done
 Shell pair data                         ... 
 Ordering of the shell pairs             ... done (   0.000 sec) 780 of 780 pairs
 Determination of significant pairs      ... done (   0.000 sec)
 Creation of shell pair data             ... done (   0.001 sec)
 Storage of shell pair data              ... done (   0.145 sec)
 Shell pair data done in (   0.147 sec)
 Computing two index integrals           ... done
 Cholesky decomposition of the V-matrix  ... done


Timings:
 Total evaluation time                   ...   2.716 sec (  0.045 min)
 One electron matrix time                ...   0.046 sec (  0.001 min) =  1.7%
 Schwartz matrix evaluation time         ...   2.492 sec (  0.042 min) = 91.8%
 Two index repulsion integral time       ...   0.002 sec (  0.000 min) =  0.1%
 Cholesky decomposition of V             ...   0.001 sec (  0.000 min) =  0.0%
 Three index repulsion integral time     ...   0.000 sec (  0.000 min) =  0.0%



           ************************************************************
           *        Program running with 24 parallel MPI-processes    *
           *              working on a common directory               *
           ************************************************************
-------------------------------------------------------------------------------
                                 ORCA SCF
-------------------------------------------------------------------------------

------------
SCF SETTINGS
------------
Hamiltonian:
 Density Functional     Method          .... DFT(GTOs)
 Exchange Functional    Exchange        .... TPSS
 Correlation Functional Correlation     .... TPSS
 LDA part of GGA corr.  LDAOpt          .... PW91-LDA
 Gradients option       PostSCFGGA      .... off
   Density functional embedding theory  .... OFF
   NL short-range parameter             ....  5.000000
 RI-approximation to the Coulomb term is turned on
   Number of auxiliary basis functions  .... 138


General Settings:
 Integral files         IntName         .... 14_VF
 Hartree-Fock type      HFTyp           .... UHF
 Total Charge           Charge          ....    0
 Multiplicity           Mult            ....    5
 Number of Electrons    NEL             ....   32
 Basis Dimension        Dim             ....  139
 Nuclear Repulsion      ENuc            ....     60.2775372195 Eh

Convergence Acceleration:
 DIIS                   CNVDIIS         .... on
   Start iteration      DIISMaxIt       ....    12
   Startup error        DIISStart       ....  0.200000
   # of expansion vecs  DIISMaxEq       ....     5
   Bias factor          DIISBfac        ....   1.050
   Max. coefficient     DIISMaxC        ....  10.000
 Newton-Raphson         CNVNR           .... off
 SOSCF                  CNVSOSCF        .... off
 Level Shifting         CNVShift        .... on
   Level shift para.    LevelShift      ....    0.2500
   Turn off err/grad.   ShiftErr        ....    0.0010
 Zerner damping         CNVZerner       .... off
 Static damping         CNVDamp         .... on
   Fraction old density DampFac         ....    0.7000
   Max. Damping (<1)    DampMax         ....    0.9800
   Min. Damping (>=0)   DampMin         ....    0.0000
   Turn off err/grad.   DampErr         ....    0.1000
 Fernandez-Rico         CNVRico         .... off

SCF Procedure:
 Maximum # iterations   MaxIter         ....   125
 SCF integral mode      SCFMode         .... Direct
   Integral package                     .... LIBINT
 Reset frequency        DirectResetFreq ....    20
 Integral Threshold     Thresh          ....  1.000e-10 Eh
 Primitive CutOff       TCut            ....  1.000e-11 Eh

Convergence Tolerance:
 Convergence Check Mode ConvCheckMode   .... Total+1el-Energy
 Convergence forced     ConvForced      .... 0
 Energy Change          TolE            ....  1.000e-06 Eh
 1-El. energy change                    ....  1.000e-03 Eh
 DIIS Error             TolErr          ....  1.000e-06


Diagonalization of the overlap matrix:
Smallest eigenvalue                        ... 5.885e-05
Time for diagonalization                   ...    0.005 sec
Threshold for overlap eigenvalues          ... 1.000e-08
Number of eigenvalues below threshold      ... 0
Time for construction of square roots      ...    0.002 sec
Total time needed                          ...    0.008 sec

-------------------
DFT GRID GENERATION
-------------------

General Integration Accuracy     IntAcc      ...  4.670
Radial Grid Type                 RadialGrid  ... Gauss-Chebyshev
Angular Grid (max. acc.)         AngularGrid ... Lebedev-302
Angular grid pruning method      GridPruning ... 3 (G Style)
Weight generation scheme         WeightScheme... Becke
Basis function cutoff            BFCut       ...    1.0000e-10
Integration weight cutoff        WCut        ...    1.0000e-14
Grids for H and He will be reduced by one unit

# of grid points (after initial pruning)     ...  15936 (   0.0 sec)
# of grid points (after weights+screening)   ...  15892 (   0.0 sec)
nearest neighbour list constructed           ...    0.0 sec
Grid point re-assignment to atoms done       ...    0.0 sec
Grid point division into batches done        ...    0.1 sec
Reduced shell lists constructed in    0.1 sec

Total number of grid points                  ...    15892
Total number of batches                      ...      250
Average number of points per batch           ...       63
Average number of grid points per atom       ...     7946
Average number of shells per batch           ...    16.92 (43.38%)
Average number of basis functions per batch  ...    44.08 (31.71%)
Average number of large shells per batch     ...    11.33 (67.00%)
Average number of large basis fcns per batch ...    30.00 (68.05%)
Maximum spatial batch extension              ...  28.57, 31.41, 18.56 au
Average spatial batch extension              ...   0.88,  0.94,  0.67 au

Time for grid setup =    0.206 sec

------------------------------
INITIAL GUESS: MODEL POTENTIAL
------------------------------
Loading Hartree-Fock densities                     ... done
Calculating cut-offs                               ... done
Setting up the integral package                    ... done
Initializing the effective Hamiltonian             ... done
Starting the Coulomb interaction                   ... done (   0.0 sec)
Reading the grid                                   ... done
Mapping shells                                     ... done
Starting the XC term evaluation                    ... done (   0.0 sec)
  promolecular density results
     # of electrons  =     32.000010430
     EX              =    -53.906199021
     EC              =     -1.258308765
     EX+EC           =    -55.164507787
Transforming the Hamiltonian                       ... done (   0.0 sec)
Diagonalizing the Hamiltonian                      ... done (   0.0 sec)
Back transforming the eigenvectors                 ... done (   0.0 sec)
Now organizing SCF variables                       ... done
                      ------------------
                      INITIAL GUESS DONE (   0.3 sec)
                      ------------------
--------------
SCF ITERATIONS
--------------
ITER       Energy         Delta-E        Max-DP      RMS-DP      [F,P]     Damp
               ***  Starting incremental Fock matrix formation  ***
  0  -1043.8445579255   0.000000000000 0.10134016  0.00190260  0.2797128 0.7000
  1  -1043.8892618052  -0.044703879764 0.03992774  0.00085921  0.0589914 0.7000
                               ***Turning on DIIS***
  2  -1043.9017470717  -0.012485266444 0.11272428  0.00120098  0.0281787 0.0000
  3  -1043.9286232488  -0.026876177137 0.04788043  0.00098876  0.0455974 0.0000
  4  -1043.9339367432  -0.005313494376 0.01540370  0.00035910  0.0337072 0.0000
  5  -1043.9355669159  -0.001630172706 0.01209899  0.00019778  0.0080579 0.0000
  6  -1043.9360760296  -0.000509113661 0.00935603  0.00010522  0.0028199 0.0000
  7  -1043.9362590174  -0.000182987812 0.00817212  0.00008272  0.0023631 0.0000
  8  -1043.9363621459  -0.000103128554 0.00685512  0.00007365  0.0020117 0.0000
  9  -1043.9364349848  -0.000072838880 0.00677965  0.00007901  0.0016842 0.0000
 10  -1043.9364874010  -0.000052416163 0.00499281  0.00004803  0.0014062 0.0000
 11  -1043.9365226887  -0.000035287735 0.00628227  0.00007192  0.0011559 0.0000
 12  -1043.9365467327  -0.000024043959 0.01882973  0.00016148  0.0009827 0.0000
 13  -1043.9365866720  -0.000039939336 0.00262959  0.00003449  0.0018513 0.0000
 14  -1043.9365960491  -0.000009377067 0.00217491  0.00002972  0.0008286 0.0000
 15  -1043.9365994315  -0.000003382437 0.00069966  0.00001050  0.0003739 0.0000
                 **** Energy Check signals convergence ****

               *****************************************************
               *                     SUCCESS                       *
               *           SCF CONVERGED AFTER  16 CYCLES          *
               *****************************************************


----------------
TOTAL SCF ENERGY
----------------

Total Energy       :        -1043.93659970 Eh          -28406.95906 eV

Components:
Nuclear Repulsion  :           60.27753722 Eh            1640.23518 eV
Electronic Energy  :        -1104.21413692 Eh          -30047.19424 eV
One Electron Energy:        -1556.73421815 Eh          -42360.89166 eV
Two Electron Energy:          452.52008123 Eh           12313.69743 eV

Virial components:
Potential Energy   :        -2085.91989741 Eh          -56760.76607 eV
Kinetic Energy     :         1041.98329771 Eh           28353.80701 eV
Virial Ratio       :            2.00187460


DFT components:
N(Alpha)           :       18.000009207711 electrons
N(Beta)            :       14.000009328117 electrons
N(Total)           :       32.000018535829 electrons
E(X)               :      -54.597875309890 Eh       
E(C)               :       -1.256027270819 Eh       
E(XC)              :      -55.853902580709 Eh       
DFET-embed. en.    :        0.000000000000 Eh       

---------------
SCF CONVERGENCE
---------------

  Last Energy change         ...   -2.6876e-07  Tolerance :   1.0000e-06
  Last MAX-Density change    ...    4.2092e-04  Tolerance :   1.0000e-05
  Last RMS-Density change    ...    6.2172e-06  Tolerance :   1.0000e-06
  Last DIIS Error            ...    1.6549e-04  Tolerance :   1.0000e-06

             **** THE GBW FILE WAS UPDATED (14_VF.gbw) ****
             **** DENSITY FILE WAS UPDATED (14_VF.scfp) ****
             **** ENERGY FILE WAS UPDATED (14_VF.en.tmp) ****
----------------------
UHF SPIN CONTAMINATION
----------------------

Warning: in a DFT calculation there is little theoretical justification to 
         calculate <S**2> as in Hartree-Fock theory. We will do it anyways
         but you should keep in mind that the values have only limited relevance

Expectation value of <S**2>     :     6.008382
Ideal value S*(S+1) for S=2.0   :     6.000000
Deviation                       :     0.008382

             **** THE GBW FILE WAS UPDATED (14_VF.gbw) ****
             **** DENSITY FILE WAS UPDATED (14_VF.scfp) ****
----------------
ORBITAL ENERGIES
----------------
                 SPIN UP ORBITALS
  NO   OCC          E(Eh)            E(eV) 
   0   1.0000    -196.103274     -5336.2414 
   1   1.0000     -24.354431      -662.7178 
   2   1.0000     -21.876566      -595.2916 
   3   1.0000     -18.397292      -500.6158 
   4   1.0000     -18.392640      -500.4892 
   5   1.0000     -18.386948      -500.3343 
   6   1.0000      -2.524660       -68.6995 
   7   1.0000      -1.592769       -43.3415 
   8   1.0000      -1.582965       -43.0747 
   9   1.0000      -1.574627       -42.8478 
  10   1.0000      -1.023385       -27.8477 
  11   1.0000      -0.352477        -9.5914 
  12   1.0000      -0.327781        -8.9194 
  13   1.0000      -0.325655        -8.8615 
  14   1.0000      -0.175386        -4.7725 
  15   1.0000      -0.161703        -4.4002 
  16   1.0000      -0.161214        -4.3869 
  17   1.0000      -0.157030        -4.2730 
  18   0.0000      -0.129053        -3.5117 
  19   0.0000      -0.103961        -2.8289 
  20   0.0000      -0.040139        -1.0922 
  21   0.0000      -0.038056        -1.0356 
  22   0.0000      -0.001433        -0.0390 
  23   0.0000       0.001656         0.0451 
  24   0.0000       0.022824         0.6211 
  25   0.0000       0.023456         0.6383 
  26   0.0000       0.035419         0.9638 
  27   0.0000       0.035594         0.9686 
  28   0.0000       0.040091         1.0909 
  29   0.0000       0.040997         1.1156 
  30   0.0000       0.042138         1.1466 
  31   0.0000       0.054694         1.4883 
  32   0.0000       0.086437         2.3521 
  33   0.0000       0.128414         3.4943 
  34   0.0000       0.129535         3.5248 
  35   0.0000       0.158284         4.3071 
  36   0.0000       0.164014         4.4631 
  37   0.0000       0.166300         4.5252 
  38   0.0000       0.177895         4.8408 
  39   0.0000       0.183255         4.9866 
  40   0.0000       0.215294         5.8584 
  41   0.0000       0.218779         5.9533 
  42   0.0000       0.218979         5.9587 
  43   0.0000       0.220546         6.0014 
  44   0.0000       0.365968         9.9585 
  45   0.0000       0.367074         9.9886 
  46   0.0000       0.367223         9.9927 
  47   0.0000       0.368493        10.0272 
  48   0.0000       0.383422        10.4334 
  49   0.0000       0.468456        12.7473 
  50   0.0000       0.479697        13.0532 
  51   0.0000       0.483216        13.1490 
  52   0.0000       0.520609        14.1665 
  53   0.0000       0.558054        15.1854 
  54   0.0000       0.558645        15.2015 
  55   0.0000       0.651866        17.7382 
  56   0.0000       0.654422        17.8077 
  57   0.0000       0.665782        18.1168 
  58   0.0000       0.679534        18.4911 
  59   0.0000       0.704369        19.1669 
  60   0.0000       0.846596        23.0370 
  61   0.0000       0.856054        23.2944 
  62   0.0000       0.856641        23.3104 
  63   0.0000       0.937642        25.5145 
  64   0.0000       0.938520        25.5384 
  65   0.0000       1.098570        29.8936 
  66   0.0000       1.159944        31.5637 
  67   0.0000       1.163750        31.6672 
  68   0.0000       1.308890        35.6167 
  69   0.0000       1.312337        35.7105 
  70   0.0000       1.312645        35.7189 
  71   0.0000       1.314190        35.7609 
  72   0.0000       1.342977        36.5443 
  73   0.0000       1.447805        39.3968 
  74   0.0000       1.497179        40.7403 
  75   0.0000       1.513809        41.1928 
  76   0.0000       1.576856        42.9084 
  77   0.0000       1.578107        42.9425 
  78   0.0000       1.579512        42.9807 
  79   0.0000       1.579550        42.9817 
  80   0.0000       1.696778        46.1717 
  81   0.0000       1.703747        46.3613 
  82   0.0000       1.909164        51.9510 
  83   0.0000       1.919187        52.2237 
  84   0.0000       1.920337        52.2550 
  85   0.0000       2.083854        56.7045 
  86   0.0000       2.134516        58.0831 
  87   0.0000       2.141505        58.2733 
  88   0.0000       2.260528        61.5121 
  89   0.0000       2.539042        69.0908 
  90   0.0000       2.601672        70.7951 
  91   0.0000       2.601965        70.8031 
  92   0.0000       2.680787        72.9479 
  93   0.0000       2.680809        72.9485 
  94   0.0000       2.698240        73.4229 
  95   0.0000       2.699223        73.4496 
  96   0.0000       2.709343        73.7250 
  97   0.0000       2.723335        74.1057 
  98   0.0000       2.774096        75.4870 
  99   0.0000       2.807323        76.3912 
 100   0.0000       2.808659        76.4275 
 101   0.0000       3.003447        81.7280 
 102   0.0000       3.004568        81.7584 
 103   0.0000       3.225669        87.7749 
 104   0.0000       3.482545        94.7649 
 105   0.0000       3.484031        94.8053 
 106   0.0000       3.985215       108.4432 
 107   0.0000       4.763933       129.6332 
 108   0.0000       4.764117       129.6382 
 109   0.0000       4.781993       130.1247 
 110   0.0000       4.784636       130.1966 
 111   0.0000       4.840136       131.7068 
 112   0.0000       4.840544       131.7179 
 113   0.0000       4.853229       132.0631 
 114   0.0000       5.035260       137.0164 
 115   0.0000       5.041715       137.1921 
 116   0.0000       5.115266       139.1935 
 117   0.0000       5.115289       139.1941 
 118   0.0000       5.119245       139.3017 
 119   0.0000       5.119729       139.3149 
 120   0.0000       5.175926       140.8441 
 121   0.0000       5.180924       140.9801 
 122   0.0000       5.274600       143.5292 
 123   0.0000       5.278583       143.6376 
 124   0.0000       5.369459       146.1104 
 125   0.0000       5.718680       155.6132 
 126   0.0000       8.366955       227.6764 
 127   0.0000       8.366980       227.6771 
 128   0.0000       8.501789       231.3454 
 129   0.0000       8.502770       231.3721 
 130   0.0000       8.736644       237.7362 
 131   0.0000       8.736959       237.7447 
 132   0.0000       8.757931       238.3154 
 133   0.0000       8.821710       240.0509 
 134   0.0000       8.824036       240.1142 
 135   0.0000       8.850785       240.8421 
 136   0.0000       8.851448       240.8601 
 137   0.0000       9.047066       246.1832 
 138   0.0000      13.572518       369.3270 

                 SPIN DOWN ORBITALS
  NO   OCC          E(Eh)            E(eV) 
   0   1.0000    -196.102423     -5336.2182 
   1   1.0000     -24.355415      -662.7445 
   2   1.0000     -21.841453      -594.3361 
   3   1.0000     -18.375624      -500.0262 
   4   1.0000     -18.363081      -499.6848 
   5   1.0000     -18.352876      -499.4071 
   6   1.0000      -2.419038       -65.8254 
   7   1.0000      -1.508995       -41.0618 
   8   1.0000      -1.472245       -40.0618 
   9   1.0000      -1.445978       -39.3471 
  10   1.0000      -1.023906       -27.8619 
  11   1.0000      -0.348232        -9.4759 
  12   1.0000      -0.326068        -8.8728 
  13   1.0000      -0.318662        -8.6712 
  14   0.0000      -0.093265        -2.5379 
  15   0.0000      -0.073171        -1.9911 
  16   0.0000      -0.048628        -1.3232 
  17   0.0000      -0.044398        -1.2081 
  18   0.0000      -0.042833        -1.1655 
  19   0.0000      -0.039857        -1.0846 
  20   0.0000       0.005500         0.1497 
  21   0.0000       0.009520         0.2591 
  22   0.0000       0.016549         0.4503 
  23   0.0000       0.019193         0.5223 
  24   0.0000       0.043312         1.1786 
  25   0.0000       0.046034         1.2527 
  26   0.0000       0.059615         1.6222 
  27   0.0000       0.060672         1.6510 
  28   0.0000       0.060931         1.6580 
  29   0.0000       0.063532         1.7288 
  30   0.0000       0.063565         1.7297 
  31   0.0000       0.069843         1.9005 
  32   0.0000       0.121433         3.3044 
  33   0.0000       0.169258         4.6057 
  34   0.0000       0.172196         4.6857 
  35   0.0000       0.190215         5.1760 
  36   0.0000       0.211534         5.7561 
  37   0.0000       0.212871         5.7925 
  38   0.0000       0.213056         5.7975 
  39   0.0000       0.215297         5.8585 
  40   0.0000       0.227022         6.1776 
  41   0.0000       0.231096         6.2884 
  42   0.0000       0.233059         6.3419 
  43   0.0000       0.247987         6.7481 
  44   0.0000       0.404644        11.0109 
  45   0.0000       0.404703        11.0125 
  46   0.0000       0.418588        11.3904 
  47   0.0000       0.418624        11.3913 
  48   0.0000       0.432575        11.7710 
  49   0.0000       0.504951        13.7404 
  50   0.0000       0.505750        13.7622 
  51   0.0000       0.510037        13.8788 
  52   0.0000       0.555821        15.1247 
  53   0.0000       0.612965        16.6796 
  54   0.0000       0.620928        16.8963 
  55   0.0000       0.718031        19.5386 
  56   0.0000       0.720080        19.5944 
  57   0.0000       0.720579        19.6080 
  58   0.0000       0.730793        19.8859 
  59   0.0000       0.740285        20.1442 
  60   0.0000       0.854448        23.2507 
  61   0.0000       0.867830        23.6148 
  62   0.0000       0.867979        23.6189 
  63   0.0000       0.940645        25.5963 
  64   0.0000       0.943162        25.6648 
  65   0.0000       1.130539        30.7635 
  66   0.0000       1.185665        32.2636 
  67   0.0000       1.192683        32.4546 
  68   0.0000       1.349518        36.7222 
  69   0.0000       1.378944        37.5230 
  70   0.0000       1.379512        37.5384 
  71   0.0000       1.398886        38.0656 
  72   0.0000       1.398949        38.0673 
  73   0.0000       1.486178        40.4409 
  74   0.0000       1.536776        41.8178 
  75   0.0000       1.546689        42.0876 
  76   0.0000       1.627991        44.2999 
  77   0.0000       1.628136        44.3038 
  78   0.0000       1.635946        44.5164 
  79   0.0000       1.635961        44.5168 
  80   0.0000       1.729579        47.0642 
  81   0.0000       1.730766        47.0965 
  82   0.0000       1.934304        52.6351 
  83   0.0000       1.943471        52.8845 
  84   0.0000       1.948527        53.0221 
  85   0.0000       2.158635        58.7394 
  86   0.0000       2.215097        60.2759 
  87   0.0000       2.228720        60.6466 
  88   0.0000       2.295989        62.4770 
  89   0.0000       2.554600        69.5142 
  90   0.0000       2.603266        70.8385 
  91   0.0000       2.603386        70.8417 
  92   0.0000       2.682571        72.9965 
  93   0.0000       2.682578        72.9966 
  94   0.0000       2.775358        75.5213 
  95   0.0000       2.793453        76.0137 
  96   0.0000       2.800581        76.2077 
  97   0.0000       2.802065        76.2481 
  98   0.0000       2.816457        76.6397 
  99   0.0000       2.828908        76.9785 
 100   0.0000       2.829027        76.9817 
 101   0.0000       3.012438        81.9726 
 102   0.0000       3.012617        81.9775 
 103   0.0000       3.247016        88.3558 
 104   0.0000       3.500674        95.2582 
 105   0.0000       3.510595        95.5281 
 106   0.0000       4.020052       109.3912 
 107   0.0000       4.838562       131.6640 
 108   0.0000       4.844907       131.8366 
 109   0.0000       4.889484       133.0496 
 110   0.0000       4.895709       133.2190 
 111   0.0000       4.895753       133.2202 
 112   0.0000       4.898316       133.2899 
 113   0.0000       4.910633       133.6251 
 114   0.0000       5.116259       139.2205 
 115   0.0000       5.148566       140.0996 
 116   0.0000       5.199405       141.4830 
 117   0.0000       5.199439       141.4839 
 118   0.0000       5.207150       141.6938 
 119   0.0000       5.207158       141.6940 
 120   0.0000       5.245885       142.7478 
 121   0.0000       5.247592       142.7942 
 122   0.0000       5.329453       145.0218 
 123   0.0000       5.355650       145.7346 
 124   0.0000       5.426367       147.6590 
 125   0.0000       5.764005       156.8466 
 126   0.0000       8.365928       227.6485 
 127   0.0000       8.365937       227.6487 
 128   0.0000       8.500753       231.3172 
 129   0.0000       8.501635       231.3412 
 130   0.0000       8.735730       237.7113 
 131   0.0000       8.735991       237.7184 
 132   0.0000       8.759283       238.3522 
 133   0.0000       8.820567       240.0198 
 134   0.0000       8.825390       240.1511 
 135   0.0000       8.845917       240.7096 
 136   0.0000       8.851745       240.8682 
 137   0.0000       9.045243       246.1336 
 138   0.0000      13.574254       369.3742 

                    ********************************
                    * MULLIKEN POPULATION ANALYSIS *
                    ********************************

--------------------------------------------
MULLIKEN ATOMIC CHARGES AND SPIN POPULATIONS
--------------------------------------------
   0 V :    0.546459    4.025585
   1 F :   -0.546459   -0.025585
Sum of atomic charges         :    0.0000000
Sum of atomic spin populations:    4.0000000

-----------------------------------------------------
MULLIKEN REDUCED ORBITAL CHARGES AND SPIN POPULATIONS
-----------------------------------------------------
CHARGE
  0 V s       :     6.734707  s :     6.734707
      pz      :     4.051934  p :    12.120586
      px      :     4.033351
      py      :     4.035300
      dz2     :     0.523845  d :     3.572939
      dxz     :     0.539240
      dyz     :     0.583165
      dx2y2   :     0.998886
      dxy     :     0.927803
      f0      :     0.008032  f :     0.017702
      f+1     :     0.004325
      f-1     :     0.004461
      f+2     :     0.000305
      f-2     :     0.000557
      f+3     :     0.000011
      f-3     :     0.000010
      g0      :     0.003580  g :     0.007608
      g+1     :     0.001974
      g-1     :     0.001992
      g+2     :    -0.000000
      g-2     :     0.000045
      g+3     :     0.000003
      g-3     :     0.000003
      g+4     :     0.000006
      g-4     :     0.000005
  1 F s       :     3.991647  s :     3.991647
      pz      :     1.753279  p :     5.541128
      px      :     1.892212
      py      :     1.895637
      dz2     :     0.003305  d :     0.011723
      dxz     :     0.003692
      dyz     :     0.003677
      dx2y2   :     0.000534
      dxy     :     0.000514
      f0      :     0.000837  f :     0.001962
      f+1     :     0.000469
      f-1     :     0.000476
      f+2     :     0.000096
      f-2     :     0.000084
      f+3     :     0.000000
      f-3     :     0.000000

SPIN
  0 V s       :     0.695783  s :     0.695783
      pz      :     0.038806  p :     0.084973
      px      :     0.022092
      py      :     0.024075
      dz2     :     0.357668  d :     3.243178
      dxz     :     0.457135
      dyz     :     0.501777
      dx2y2   :     0.998886
      dxy     :     0.927713
      f0      :    -0.000477  f :     0.002696
      f+1     :     0.001106
      f-1     :     0.001265
      f+2     :     0.000305
      f-2     :     0.000495
      f+3     :     0.000001
      f-3     :     0.000000
      g0      :    -0.000408  g :    -0.001045
      g+1     :    -0.000356
      g-1     :    -0.000332
      g+2     :    -0.000000
      g-2     :     0.000035
      g+3     :     0.000003
      g-3     :     0.000002
      g+4     :     0.000006
      g-4     :     0.000005
  1 F s       :     0.003944  s :     0.003944
      pz      :    -0.025132  p :    -0.033433
      px      :    -0.005471
      py      :    -0.002829
      dz2     :     0.000915  d :     0.003201
      dxz     :     0.000624
      dyz     :     0.000616
      dx2y2   :     0.000534
      dxy     :     0.000511
      f0      :     0.000234  f :     0.000703
      f+1     :     0.000143
      f-1     :     0.000149
      f+2     :     0.000096
      f-2     :     0.000083
      f+3     :    -0.000000
      f-3     :    -0.000000


                     *******************************
                     * LOEWDIN POPULATION ANALYSIS *
                     *******************************

-------------------------------------------
LOEWDIN ATOMIC CHARGES AND SPIN POPULATIONS
-------------------------------------------
   0 V :    0.312717    3.910235
   1 F :   -0.312717    0.089765

----------------------------------------------------
LOEWDIN REDUCED ORBITAL CHARGES AND SPIN POPULATIONS
----------------------------------------------------
CHARGE
  0 V s       :     6.533905  s :     6.533905
      pz      :     4.070754  p :    12.129771
      px      :     4.028025
      py      :     4.030992
      dz2     :     0.627802  d :     3.693373
      dxz     :     0.553919
      dyz     :     0.595108
      dx2y2   :     0.993613
      dxy     :     0.922932
      f0      :     0.109607  f :     0.237867
      f+1     :     0.062969
      f-1     :     0.063654
      f+2     :     0.000679
      f-2     :     0.000936
      f+3     :     0.000011
      f-3     :     0.000010
      g0      :     0.037986  g :     0.092367
      g+1     :     0.026987
      g-1     :     0.027184
      g+2     :     0.000086
      g-2     :     0.000106
      g+3     :     0.000003
      g-3     :     0.000003
      g+4     :     0.000006
      g-4     :     0.000005
  1 F s       :     3.703217  s :     3.703217
      pz      :     1.860644  p :     5.393164
      px      :     1.764863
      py      :     1.767658
      dz2     :     0.108735  d :     0.183955
      dxz     :     0.032761
      dyz     :     0.034085
      dx2y2   :     0.004353
      dxy     :     0.004021
      f0      :     0.018517  f :     0.032381
      f+1     :     0.005737
      f-1     :     0.006029
      f+2     :     0.001090
      f-2     :     0.001007
      f+3     :     0.000000
      f-3     :     0.000000

SPIN
  0 V s       :     0.637322  s :     0.637322
      pz      :     0.045117  p :     0.109296
      px      :     0.030619
      py      :     0.033559
      dz2     :     0.343435  d :     3.153956
      dxz     :     0.426139
      dyz     :     0.467928
      dx2y2   :     0.993613
      dxy     :     0.922842
      f0      :    -0.000311  f :     0.009353
      f+1     :     0.003740
      f-1     :     0.004369
      f+2     :     0.000679
      f-2     :     0.000875
      f+3     :     0.000002
      f-3     :     0.000000
      g0      :    -0.000540  g :     0.000308
      g+1     :     0.000237
      g-1     :     0.000413
      g+2     :     0.000086
      g-2     :     0.000096
      g+3     :     0.000003
      g-3     :     0.000002
      g+4     :     0.000006
      g-4     :     0.000005
  1 F s       :     0.023080  s :     0.023080
      pz      :     0.021119  p :     0.020136
      px      :    -0.001634
      py      :     0.000650
      dz2     :     0.000818  d :     0.037221
      dxz     :     0.013348
      dyz     :     0.014684
      dx2y2   :     0.004353
      dxy     :     0.004017
      f0      :     0.001291  f :     0.009328
      f+1     :     0.002824
      f-1     :     0.003118
      f+2     :     0.001090
      f-2     :     0.001006
      f+3     :    -0.000000
      f-3     :    -0.000000


                      *****************************
                      * MAYER POPULATION ANALYSIS *
                      *****************************

  NA   - Mulliken gross atomic population
  ZA   - Total nuclear charge
  QA   - Mulliken gross atomic charge
  VA   - Mayer's total valence
  BVA  - Mayer's bonded valence
  FA   - Mayer's free valence

  ATOM       NA         ZA         QA         VA         BVA        FA
  0 V     22.4535    23.0000     0.5465     4.7944     0.8876     3.9068
  1 F      9.5465     9.0000    -0.5465     0.8909     0.8876     0.0033

  Mayer bond orders larger than 0.100000
B(  0-V ,  1-F ) :   0.8876 

-------
TIMINGS
-------

Total SCF time: 0 days 0 hours 0 min 3 sec 

Total time                  ....       3.570 sec
Sum of individual times     ....       3.407 sec  ( 95.4%)

Fock matrix formation       ....       2.920 sec  ( 81.8%)
  Split-RI-J                ....       2.170 sec  ( 74.3% of F)
  XC integration            ....       0.651 sec  ( 22.3% of F)
    Basis function eval.    ....       0.084 sec  ( 12.9% of XC)
    Density eval.           ....       0.095 sec  ( 14.6% of XC)
    XC-Functional eval.     ....       0.024 sec  (  3.6% of XC)
    XC-Potential eval.      ....       0.283 sec  ( 43.4% of XC)
Diagonalization             ....       0.085 sec  (  2.4%)
Density matrix formation    ....       0.011 sec  (  0.3%)
Population analysis         ....       0.007 sec  (  0.2%)
Initial guess               ....       0.146 sec  (  4.1%)
Orbital Transformation      ....       0.000 sec  (  0.0%)
Orbital Orthonormalization  ....       0.000 sec  (  0.0%)
DIIS solution               ....       0.033 sec  (  0.9%)
Grid generation             ....       0.206 sec  (  5.8%)


-------------------------------------------------------------------------------
                          DFT DISPERSION CORRECTION                            
                                                                               
                              DFTD3 V3.1  Rev 1                                
                          USING Becke-Johnson damping                          
-------------------------------------------------------------------------------
The TPSS functional is recognized
Active option DFTDOPT                   ...         4   

molecular C6(AA) [au] = 607.509610 


            DFT-D V3
 parameters
 s6 scaling factor         :     1.0000 
 a1 scaling factor         :     0.4535 
 s8 scaling factor         :     1.9435 
 a2 scaling factor         :     4.4752 
 ad hoc parameters k1-k3   :    16.0000     1.3333    -4.0000 

 Edisp/kcal,au: -0.407664348818  -0.000649654423 
 E6   /kcal   :  -0.161210264 
 E8   /kcal   :  -0.246454085 
 % E8         :  60.455147971 

-------------------------   ----------------
Dispersion correction           -0.000649654
-------------------------   ----------------


-------------------------   --------------------
FINAL SINGLE POINT ENERGY     -1043.937249354688
-------------------------   --------------------


                            ***************************************
                            *     ORCA property calculations      *
                            ***************************************

                                    ---------------------
                                    Active property flags
                                    ---------------------
   (+) Dipole Moment


------------------------------------------------------------------------------
                       ORCA ELECTRIC PROPERTIES CALCULATION
------------------------------------------------------------------------------

Dipole Moment Calculation                       ... on
Quadrupole Moment Calculation                   ... off
Polarizability Calculation                      ... off
GBWName                                         ... 14_VF.gbw
Electron density file                           ... 14_VF.scfp
The origin for moment calculation is the CENTER OF MASS  = ( 0.000000,  0.000000  1.105514)

-------------
DIPOLE MOMENT
-------------
                                X             Y             Z
Electronic contribution:      0.00000       0.00000      -2.34581
Nuclear contribution   :      0.00000       0.00000       1.05599
                        -----------------------------------------
Total Dipole Moment    :      0.00000       0.00000      -1.28981
                        -----------------------------------------
Magnitude (a.u.)       :      1.28981
Magnitude (Debye)      :      3.27844



--------------------
Rotational spectrum 
--------------------
 
Rotational constants in cm-1:     0.000000     0.368902     0.368902 
Rotational constants in MHz :     0.000000 11059.411965 11059.411965 

 Dipole components along the rotational axes: 
x,y,z [a.u.] :    -1.289812     0.000000     0.000000 
x,y,z [Debye]:    -3.278442     0.000000     0.000000 

 

Timings for individual modules:

Sum of individual times         ...        7.102 sec (=   0.118 min)
GTO integral calculation        ...        3.201 sec (=   0.053 min)  45.1 %
SCF iterations                  ...        3.901 sec (=   0.065 min)  54.9 %
                             ****ORCA TERMINATED NORMALLY****
TOTAL RUN TIME: 0 days 0 hours 0 minutes 7 seconds 704 msec
