
                                 *****************
                                 * O   R   C   A *
                                 *****************

           --- An Ab Initio, DFT and Semiempirical electronic structure package ---

                  #######################################################
                  #                        -***-                        #
                  #          Department of theory and spectroscopy      #
                  #               Directorship: Frank Neese             #
                  #        Max Planck Institute fuer Kohlenforschung    #
                  #                Kaiser Wilhelm Platz 1               #
                  #                 D-45470 Muelheim/Ruhr               #
                  #                      Germany                        #
                  #                                                     #
                  #                  All rights reserved                #
                  #                        -***-                        #
                  #######################################################


                         Program Version 4.2.0 -  RELEASE  -


 With contributions from (in alphabetic order):
   Daniel Aravena         : Magnetic Suceptibility
   Michael Atanasov       : Ab Initio Ligand Field Theory (pilot matlab implementation)
   Alexander A. Auer      : GIAO ZORA, VPT2
   Ute Becker             : Parallelization
   Giovanni Bistoni       : ED, misc. LED, open-shell LED, HFLED
   Martin Brehm           : Molecular dynamics
   Dmytro Bykov           : SCF Hessian
   Vijay G. Chilkuri      : MRCI spin determinant printing, contributions to CSF-ICE
   Dipayan Datta          : RHF DLPNO-CCSD density
   Achintya Kumar Dutta   : EOM-CC, STEOM-CC
   Dmitry Ganyushin       : Spin-Orbit,Spin-Spin,Magnetic field MRCI
   Miquel Garcia          : C-PCM Hessian, Gaussian charge scheme
   Yang Guo               : DLPNO-NEVPT2, CIM, IAO-localization
   Andreas Hansen         : Spin unrestricted coupled pair/coupled cluster methods
   Benjamin Helmich-Paris : CASSCF linear response (MC-RPA)
   Lee Huntington         : MR-EOM, pCC
   Robert Izsak           : Overlap fitted RIJCOSX, COSX-SCS-MP3, EOM
   Christian Kollmar      : KDIIS, OOCD, Brueckner-CCSD(T), CCSD density
   Simone Kossmann        : Meta GGA functionals, TD-DFT gradient, OOMP2, MP2 Hessian
   Martin Krupicka        : AUTO-CI
   Lucas Lang             : DCDCAS
   Dagmar Lenk            : GEPOL surface, SMD
   Dimitrios Liakos       : Extrapolation schemes; Compound Job, initial MDCI parallelization
   Dimitrios Manganas     : Further ROCIS development; embedding schemes
   Dimitrios Pantazis     : SARC Basis sets
   Taras Petrenko         : DFT Hessian,TD-DFT gradient, ASA, ECA, R-Raman, ABS, FL, XAS/XES, NRVS
   Peter Pinski           : DLPNO-MP2, DLPNO-MP2 Gradient
   Christoph Reimann      : Effective Core Potentials
   Marius Retegan         : Local ZFS, SOC
   Christoph Riplinger    : Optimizer, TS searches, QM/MM, DLPNO-CCSD(T), (RO)-DLPNO pert. Triples
   Tobias Risthaus        : Range-separated hybrids, TD-DFT gradient, RPA, STAB
   Michael Roemelt        : Original ROCIS implementation
   Masaaki Saitow         : Open-shell DLPNO-CCSD energy and density
   Barbara Sandhoefer     : DKH picture change effects
   Avijit Sen             : IP-ROCIS
   Kantharuban Sivalingam : CASSCF convergence, NEVPT2, FIC-MRCI
   Bernardo de Souza      : ESD, SOC TD-DFT
   Georgi Stoychev        : AutoAux, RI-MP2 NMR
   Willem Van den Heuvel  : Paramagnetic NMR
   Boris Wezisla          : Elementary symmetry handling
   Frank Wennmohs         : Technical directorship


 We gratefully acknowledge several colleagues who have allowed us to
 interface, adapt or use parts of their codes:
   Stefan Grimme, W. Hujo, H. Kruse,             : VdW corrections, initial TS optimization,
                  C. Bannwarth                     DFT functionals, gCP, sTDA/sTD-DF
   Ed Valeev, F. Pavosevic, A. Kumar             : LibInt (2-el integral package), F12 methods
   Garnet Chan, S. Sharma, J. Yang, R. Olivares  : DMRG
   Ulf Ekstrom                                   : XCFun DFT Library
   Mihaly Kallay                                 : mrcc  (arbitrary order and MRCC methods)
   Andreas Klamt, Michael Diedenhofen            : otool_cosmo (COSMO solvation model)
   Jiri Pittner, Ondrej Demel                    : Mk-CCSD
   Frank Weinhold                                : gennbo (NPA and NBO analysis)
   Christopher J. Cramer and Donald G. Truhlar   : smd solvation model
   Lars Goerigk                                  : TD-DFT with DH, B97 family of functionals
   V. Asgeirsson, H. Jonsson                     : NEB implementation
   FAccTs GmbH                                   : IRC, NEB, NEB-TS, Multilevel, MM, QM/MM, CI optimization
   S Lehtola, MJT Oliveira, MAL Marques          : LibXC Library


 Your calculation uses the libint2 library for the computation of 2-el integrals
 For citations please refer to: http://libint.valeyev.net

 Your ORCA version has been built with support for libXC version: 4.2.3
 For citations please refer to: https://tddft.org/programs/libxc/

 This ORCA versions uses:
   CBLAS   interface :  Fast vector & matrix operations
   LAPACKE interface :  Fast linear algebra routines
   SCALAPACK package :  Parallel linear algebra routines


Your calculation utilizes the atom-pairwise dispersion correction
with the Becke-Johnson damping scheme (D3BJ)
Cite in your paper:
S.Grimme, S.Ehrlich, L.Goerigk, J Comput Chem, (2011), 32, 1456–1465 
S.Grimme, J.Antony, S.Ehrlich and H.Krieg, J.Chem.Phys., 132, (2010), 154104 
   

----- Orbital basis set information -----
Your calculation utilizes the basis: aug-cc-pVTZ 
    H, B-Ne : Obtained from the ccRepo (grant-hill.group.shef.ac.uk/ccrepo) Feb. 2017
              R. A. Kendall, T. H. Dunning, Jr., R. J. Harrison, J. Chem. Phys. 96, 6796 (1992)
         He : Obtained from the ccRepo (grant-hill.group.shef.ac.uk/ccrepo) Feb. 2017
              D. E. Woon, T. H. Dunning, Jr., J. Chem. Phys. 100, 2975 (1994)
  Li-Be, Na : Obtained from the ccRepo (grant-hill.group.shef.ac.uk/ccrepo) Feb. 2017
              B. P. Prascher, D. E. Woon, K. A. Peterson, T. H. Dunning, Jr., A. K. Wilson, Theor. Chem. Acc. 128, 69 (2011)
         Mg : Obtained from the Peterson Research Group Website (tyr0.chem.wsu.edu/~kipeters) Feb. 2017
              B. P. Prascher, D. E. Woon, K. A. Peterson, T. H. Dunning, Jr., A. K. Wilson, Theor. Chem. Acc. 128, 69 (2011)
      Al-Ar : Obtained from the ccRepo (grant-hill.group.shef.ac.uk/ccrepo) Feb. 2017
              D. E. Woon, T. H. Dunning, Jr., J. Chem. Phys. 98, 1358 (1993)
      Sc-Zn : Obtained from the ccRepo (grant-hill.group.shef.ac.uk/ccrepo) Feb. 2017
              N. B. Balabanov, K. A. Peterson, J. Chem. Phys. 123, 064107 (2005)
              N. B. Balabanov, K. A. Peterson, J. Chem. Phys. 125, 074110 (2006)
      Ga-Kr : Obtained from the ccRepo (grant-hill.group.shef.ac.uk/ccrepo) Feb. 2017
              A. K. Wilson, D. E. Woon, K. A. Peterson, T. H. Dunning, Jr., J. Chem. Phys. 110, 7667 (1999)
     Ag, Au : Obtained from the Peterson Research Group Website (tyr0.chem.wsu.edu/~kipeters) Feb. 2017
              K. A. Peterson, C. Puzzarini, Theor. Chem. Acc. 114, 283 (2005)

----- AuxJ basis set information -----
Your calculation utilizes the auxiliary basis: def2/J
   F. Weigend, Phys. Chem. Chem. Phys. 8, 1057 (2006).

================================================================================
                                        WARNINGS
                       Please study these warnings very carefully!
================================================================================


WARNING: your system is open-shell and RHF/RKS was chosen
  ===> : WILL SWITCH to UHF/UKS


INFO   : the flag for use of LIBINT has been found!

================================================================================
                                       INPUT FILE
================================================================================
NAME = 15_VCl.in
|  1> #
|  2> # 15_VCl tpss/aug-cc-pvtz
|  3> #
|  4> ! tpss d3bj aug-cc-pvtz def2/j grid4 nofinalgrid
|  5> 
|  6> *xyz 0 5
|  7>   V   0.00000000000000      0.00000000000000     -0.10591307408469
|  8>   Cl  0.00000000000000      0.00000000000000      2.10591307408469
|  9> *
| 10> 
| 11> %pal
| 12> nprocs 24
| 13> end
| 14> 
| 15> 
| 16>                          ****END OF INPUT****
================================================================================

                       ****************************
                       * Single Point Calculation *
                       ****************************

---------------------------------
CARTESIAN COORDINATES (ANGSTROEM)
---------------------------------
  V      0.000000    0.000000   -0.105913
  Cl     0.000000    0.000000    2.105913

----------------------------
CARTESIAN COORDINATES (A.U.)
----------------------------
  NO LB      ZA    FRAG     MASS         X           Y           Z
   0 V    23.0000    0    50.940    0.000000    0.000000   -0.200147
   1 Cl   17.0000    0    35.453    0.000000    0.000000    3.979599

--------------------------------
INTERNAL COORDINATES (ANGSTROEM)
--------------------------------
 V      0   0   0     0.000000000000     0.00000000     0.00000000
 Cl     1   0   0     2.211826148169     0.00000000     0.00000000

---------------------------
INTERNAL COORDINATES (A.U.)
---------------------------
 V      0   0   0     0.000000000000     0.00000000     0.00000000
 Cl     1   0   0     4.179745675886     0.00000000     0.00000000

---------------------
BASIS SET INFORMATION
---------------------
There are 2 groups of distinct atoms

 Group   1 Type V   : 116s77p23d3f2g contracted to 8s7p5d3f2g pattern {19191919191911/151515151511/77711/111/11}
 Group   2 Type Cl  : 42s17p3d2f contracted to 6s5p3d2f pattern {131313111/77111/111/11}

Atom   0V    basis set group =>   1
Atom   1Cl   basis set group =>   2
---------------------------------
AUXILIARY/J BASIS SET INFORMATION
---------------------------------
There are 2 groups of distinct atoms

 Group   1 Type V   : 19s5p5d3f3g contracted to 8s5p5d2f3g pattern {121111111/11111/11111/21/111}
 Group   2 Type Cl  : 14s5p5d2f1g contracted to 8s4p3d1f1g pattern {71111111/2111/311/2/1}

Atom   0V    basis set group =>   1
Atom   1Cl   basis set group =>   2


           ************************************************************
           *        Program running with 24 parallel MPI-processes    *
           *              working on a common directory               *
           ************************************************************
------------------------------------------------------------------------------
                           ORCA GTO INTEGRAL CALCULATION
                           -- RI-GTO INTEGRALS CHOSEN --
------------------------------------------------------------------------------

                         BASIS SET STATISTICS AND STARTUP INFO

Gaussian basis set:
 # of primitive gaussian shells          ...  285
 # of primitive gaussian functions       ...  623
 # of contracted shells                  ...   41
 # of contracted basis functions         ...  143
 Highest angular momentum                ...    4
 Maximum contraction depth               ...   19
Auxiliary gaussian basis set:
 # of primitive gaussian shells          ...   62
 # of primitive gaussian functions       ...  184
 # of contracted shells                  ...   40
 # of contracted aux-basis functions     ...  140
 Highest angular momentum                ...    4
 Maximum contraction depth               ...   12
Ratio of auxiliary to basis functions    ...  0.98
Integral package used                  ... LIBINT
 One Electron integrals                  ... done
 Ordering auxiliary basis shells         ... done
 Integral threshhold             Thresh  ...  1.000e-10
 Primitive cut-off               TCut    ...  1.000e-11
 Pre-screening matrix                    ... done
 Shell pair data                         ... 
 Ordering of the shell pairs             ... done (   0.000 sec) 861 of 861 pairs
 Determination of significant pairs      ... done (   0.000 sec)
 Creation of shell pair data             ... done (   0.001 sec)
 Storage of shell pair data              ... done (   0.091 sec)
 Shell pair data done in (   0.093 sec)
 Computing two index integrals           ... done
 Cholesky decomposition of the V-matrix  ... done


Timings:
 Total evaluation time                   ...   3.080 sec (  0.051 min)
 One electron matrix time                ...   0.046 sec (  0.001 min) =  1.5%
 Schwartz matrix evaluation time         ...   2.901 sec (  0.048 min) = 94.2%
 Two index repulsion integral time       ...   0.001 sec (  0.000 min) =  0.0%
 Cholesky decomposition of V             ...   0.003 sec (  0.000 min) =  0.1%
 Three index repulsion integral time     ...   0.000 sec (  0.000 min) =  0.0%



           ************************************************************
           *        Program running with 24 parallel MPI-processes    *
           *              working on a common directory               *
           ************************************************************
-------------------------------------------------------------------------------
                                 ORCA SCF
-------------------------------------------------------------------------------

------------
SCF SETTINGS
------------
Hamiltonian:
 Density Functional     Method          .... DFT(GTOs)
 Exchange Functional    Exchange        .... TPSS
 Correlation Functional Correlation     .... TPSS
 LDA part of GGA corr.  LDAOpt          .... PW91-LDA
 Gradients option       PostSCFGGA      .... off
   Density functional embedding theory  .... OFF
   NL short-range parameter             ....  5.000000
 RI-approximation to the Coulomb term is turned on
   Number of auxiliary basis functions  .... 140


General Settings:
 Integral files         IntName         .... 15_VCl
 Hartree-Fock type      HFTyp           .... UHF
 Total Charge           Charge          ....    0
 Multiplicity           Mult            ....    5
 Number of Electrons    NEL             ....   40
 Basis Dimension        Dim             ....  143
 Nuclear Repulsion      ENuc            ....     93.5463615061 Eh

Convergence Acceleration:
 DIIS                   CNVDIIS         .... on
   Start iteration      DIISMaxIt       ....    12
   Startup error        DIISStart       ....  0.200000
   # of expansion vecs  DIISMaxEq       ....     5
   Bias factor          DIISBfac        ....   1.050
   Max. coefficient     DIISMaxC        ....  10.000
 Newton-Raphson         CNVNR           .... off
 SOSCF                  CNVSOSCF        .... off
 Level Shifting         CNVShift        .... on
   Level shift para.    LevelShift      ....    0.2500
   Turn off err/grad.   ShiftErr        ....    0.0010
 Zerner damping         CNVZerner       .... off
 Static damping         CNVDamp         .... on
   Fraction old density DampFac         ....    0.7000
   Max. Damping (<1)    DampMax         ....    0.9800
   Min. Damping (>=0)   DampMin         ....    0.0000
   Turn off err/grad.   DampErr         ....    0.1000
 Fernandez-Rico         CNVRico         .... off

SCF Procedure:
 Maximum # iterations   MaxIter         ....   125
 SCF integral mode      SCFMode         .... Direct
   Integral package                     .... LIBINT
 Reset frequency        DirectResetFreq ....    20
 Integral Threshold     Thresh          ....  1.000e-10 Eh
 Primitive CutOff       TCut            ....  1.000e-11 Eh

Convergence Tolerance:
 Convergence Check Mode ConvCheckMode   .... Total+1el-Energy
 Convergence forced     ConvForced      .... 0
 Energy Change          TolE            ....  1.000e-06 Eh
 1-El. energy change                    ....  1.000e-03 Eh
 DIIS Error             TolErr          ....  1.000e-06


Diagonalization of the overlap matrix:
Smallest eigenvalue                        ... 6.367e-05
Time for diagonalization                   ...    0.006 sec
Threshold for overlap eigenvalues          ... 1.000e-08
Number of eigenvalues below threshold      ... 0
Time for construction of square roots      ...    0.002 sec
Total time needed                          ...    0.008 sec

-------------------
DFT GRID GENERATION
-------------------

General Integration Accuracy     IntAcc      ...  4.670
Radial Grid Type                 RadialGrid  ... Gauss-Chebyshev
Angular Grid (max. acc.)         AngularGrid ... Lebedev-302
Angular grid pruning method      GridPruning ... 3 (G Style)
Weight generation scheme         WeightScheme... Becke
Basis function cutoff            BFCut       ...    1.0000e-10
Integration weight cutoff        WCut        ...    1.0000e-14
Grids for H and He will be reduced by one unit

# of grid points (after initial pruning)     ...  16402 (   0.0 sec)
# of grid points (after weights+screening)   ...  16375 (   0.0 sec)
nearest neighbour list constructed           ...    0.0 sec
Grid point re-assignment to atoms done       ...    0.0 sec
Grid point division into batches done        ...    0.1 sec
Reduced shell lists constructed in    0.1 sec

Total number of grid points                  ...    16375
Total number of batches                      ...      257
Average number of points per batch           ...       63
Average number of grid points per atom       ...     8188
Average number of shells per batch           ...    16.83 (41.06%)
Average number of basis functions per batch  ...    44.50 (31.12%)
Average number of large shells per batch     ...     9.17 (54.46%)
Average number of large basis fcns per batch ...    24.83 (55.81%)
Maximum spatial batch extension              ...  24.49, 24.19, 18.13 au
Average spatial batch extension              ...   0.85,  0.83,  0.66 au

Time for grid setup =    0.160 sec

------------------------------
INITIAL GUESS: MODEL POTENTIAL
------------------------------
Loading Hartree-Fock densities                     ... done
Calculating cut-offs                               ... done
Setting up the integral package                    ... done
Initializing the effective Hamiltonian             ... done
Starting the Coulomb interaction                   ... done (   0.0 sec)
Reading the grid                                   ... done
Mapping shells                                     ... done
Starting the XC term evaluation                    ... done (   0.0 sec)
  promolecular density results
     # of electrons  =     39.999998021
     EX              =    -71.329022863
     EC              =     -1.615976095
     EX+EC           =    -72.944998958
Transforming the Hamiltonian                       ... done (   0.0 sec)
Diagonalizing the Hamiltonian                      ... done (   0.0 sec)
Back transforming the eigenvectors                 ... done (   0.0 sec)
Now organizing SCF variables                       ... done
                      ------------------
                      INITIAL GUESS DONE (   0.3 sec)
                      ------------------
--------------
SCF ITERATIONS
--------------
ITER       Energy         Delta-E        Max-DP      RMS-DP      [F,P]     Damp
               ***  Starting incremental Fock matrix formation  ***
  0  -1404.2297531269   0.000000000000 0.12871598  0.00218441  0.1161670 0.7000
  1  -1404.2588510862  -0.029097959291 0.04569753  0.00078008  0.0481918 0.7000
                               ***Turning on DIIS***
  2  -1404.2696697557  -0.010818669502 0.09338527  0.00148530  0.0195886 0.0000
  3  -1404.2875324420  -0.017862686331 0.02271197  0.00056543  0.0350045 0.0000
  4  -1404.2926330365  -0.005100594477 0.04199705  0.00080729  0.0148688 0.0000
  5  -1404.2938182803  -0.001185243804 0.01326870  0.00027473  0.0082331 0.0000
  6  -1404.2942851821  -0.000466901805 0.00964263  0.00010958  0.0026763 0.0000
  7  -1404.2945208189  -0.000235636786 0.00849049  0.00008866  0.0023007 0.0000
  8  -1404.2946718372  -0.000151018362 0.00752334  0.00007023  0.0020699 0.0000
  9  -1404.2947794365  -0.000107599227 0.00644347  0.00007314  0.0017698 0.0000
 10  -1404.2948600329  -0.000080596426 0.00563889  0.00005513  0.0016553 0.0000
 11  -1404.2949186247  -0.000058591854 0.00473732  0.00006166  0.0013447 0.0000
 12  -1404.2949598668  -0.000041242095 0.00409067  0.00003905  0.0013156 0.0000
 13  -1404.2949927000  -0.000032833111 0.00351684  0.00003785  0.0011173 0.0000
 14  -1404.2950156308  -0.000022930845 0.02003654  0.00018852  0.0009774 0.0000
 15  -1404.2950620699  -0.000046439061 0.00107983  0.00001897  0.0021830 0.0000
 16  -1404.2950711449  -0.000009075011 0.00032485  0.00000611  0.0012337 0.0000
 17  -1404.2950720973  -0.000000952411 0.00022772  0.00000356  0.0011493 0.0000
 18  -1404.2950727155  -0.000000618235 0.00017389  0.00000260  0.0010651 0.0000
 19  -1404.2950732427  -0.000000527207 0.00142245  0.00002141  0.0010070 0.0000
               *** Restarting incremental Fock matrix formation ***
                                   *** Resetting DIIS ***
 20  -1404.2950766344  -0.000003391637 0.00368113  0.00002936  0.0002701 0.0000
 21  -1404.2950701844   0.000006449995 0.00081010  0.00001632  0.0015396 0.0000
 22  -1404.2950740085  -0.000003824128 0.00141515  0.00001337  0.0008591 0.0000
 23  -1404.2950770386  -0.000003030091 0.00015078  0.00000230  0.0001665 0.0000
 24  -1404.2950772487  -0.000000210111 0.00027296  0.00000246  0.0000830 0.0000
 25  -1404.2950772753  -0.000000026574 0.00031516  0.00000265  0.0000220 0.0000
                 **** Energy Check signals convergence ****

               *****************************************************
               *                     SUCCESS                       *
               *           SCF CONVERGED AFTER  26 CYCLES          *
               *****************************************************


----------------
TOTAL SCF ENERGY
----------------

Total Energy       :        -1404.29507728 Eh          -38212.81175 eV

Components:
Nuclear Repulsion  :           93.54636151 Eh            2545.52591 eV
Electronic Energy  :        -1497.84143879 Eh          -40758.33766 eV
One Electron Energy:        -2119.37442211 Eh          -57671.10997 eV
Two Electron Energy:          621.53298332 Eh           16912.77230 eV

Virial components:
Potential Energy   :        -2805.78568615 Eh          -76349.31004 eV
Kinetic Energy     :         1401.49060887 Eh           38136.49829 eV
Virial Ratio       :            2.00200106


DFT components:
N(Alpha)           :       21.999999554332 electrons
N(Beta)            :       17.999997691896 electrons
N(Total)           :       39.999997246228 electrons
E(X)               :      -72.058689292562 Eh       
E(C)               :       -1.615422768569 Eh       
E(XC)              :      -73.674112061131 Eh       
DFET-embed. en.    :        0.000000000000 Eh       

---------------
SCF CONVERGENCE
---------------

  Last Energy change         ...   -3.9420e-09  Tolerance :   1.0000e-06
  Last MAX-Density change    ...    2.2429e-04  Tolerance :   1.0000e-05
  Last RMS-Density change    ...    1.8853e-06  Tolerance :   1.0000e-06
  Last DIIS Error            ...    1.3177e-05  Tolerance :   1.0000e-06

             **** THE GBW FILE WAS UPDATED (15_VCl.gbw) ****
             **** DENSITY FILE WAS UPDATED (15_VCl.scfp) ****
             **** ENERGY FILE WAS UPDATED (15_VCl.en.tmp) ****
----------------------
UHF SPIN CONTAMINATION
----------------------

Warning: in a DFT calculation there is little theoretical justification to 
         calculate <S**2> as in Hartree-Fock theory. We will do it anyways
         but you should keep in mind that the values have only limited relevance

Expectation value of <S**2>     :     6.013688
Ideal value S*(S+1) for S=2.0   :     6.000000
Deviation                       :     0.013688

             **** THE GBW FILE WAS UPDATED (15_VCl.gbw) ****
             **** DENSITY FILE WAS UPDATED (15_VCl.scfp) ****
----------------
ORBITAL ENERGIES
----------------
                 SPIN UP ORBITALS
  NO   OCC          E(Eh)            E(eV) 
   0   1.0000    -196.098764     -5336.1187 
   1   1.0000    -100.983566     -2747.9025 
   2   1.0000     -21.868512      -595.0725 
   3   1.0000     -18.387843      -500.3587 
   4   1.0000     -18.384843      -500.2770 
   5   1.0000     -18.380173      -500.1499 
   6   1.0000      -9.208986      -250.5893 
   7   1.0000      -6.983795      -190.0387 
   8   1.0000      -6.982635      -190.0072 
   9   1.0000      -6.981649      -189.9803 
  10   1.0000      -2.520187       -68.5778 
  11   1.0000      -1.586988       -43.1841 
  12   1.0000      -1.579374       -42.9770 
  13   1.0000      -1.570409       -42.7330 
  14   1.0000      -0.711688       -19.3660 
  15   1.0000      -0.308201        -8.3866 
  16   1.0000      -0.275170        -7.4878 
  17   1.0000      -0.274318        -7.4646 
  18   1.0000      -0.179227        -4.8770 
  19   1.0000      -0.163606        -4.4519 
  20   1.0000      -0.161276        -4.3886 
  21   1.0000      -0.155221        -4.2238 
  22   0.0000      -0.132628        -3.6090 
  23   0.0000      -0.113165        -3.0794 
  24   0.0000      -0.042806        -1.1648 
  25   0.0000      -0.039736        -1.0813 
  26   0.0000      -0.003081        -0.0838 
  27   0.0000       0.000831         0.0226 
  28   0.0000       0.020075         0.5463 
  29   0.0000       0.021095         0.5740 
  30   0.0000       0.033997         0.9251 
  31   0.0000       0.034218         0.9311 
  32   0.0000       0.037215         1.0127 
  33   0.0000       0.037396         1.0176 
  34   0.0000       0.038402         1.0450 
  35   0.0000       0.053239         1.4487 
  36   0.0000       0.081237         2.2106 
  37   0.0000       0.116249         3.1633 
  38   0.0000       0.116258         3.1635 
  39   0.0000       0.116667         3.1747 
  40   0.0000       0.131703         3.5838 
  41   0.0000       0.133201         3.6246 
  42   0.0000       0.149735         4.0745 
  43   0.0000       0.159444         4.3387 
  44   0.0000       0.161544         4.3958 
  45   0.0000       0.169766         4.6196 
  46   0.0000       0.175942         4.7876 
  47   0.0000       0.211738         5.7617 
  48   0.0000       0.242984         6.6119 
  49   0.0000       0.243755         6.6329 
  50   0.0000       0.271311         7.3827 
  51   0.0000       0.324189         8.8216 
  52   0.0000       0.324314         8.8250 
  53   0.0000       0.357894         9.7388 
  54   0.0000       0.364134         9.9086 
  55   0.0000       0.364368         9.9149 
  56   0.0000       0.408645        11.1198 
  57   0.0000       0.435646        11.8545 
  58   0.0000       0.439230        11.9521 
  59   0.0000       0.460896        12.5416 
  60   0.0000       0.477613        12.9965 
  61   0.0000       0.520350        14.1595 
  62   0.0000       0.552216        15.0266 
  63   0.0000       0.554677        15.0935 
  64   0.0000       0.588491        16.0136 
  65   0.0000       0.592857        16.1325 
  66   0.0000       0.648370        17.6430 
  67   0.0000       0.650918        17.7124 
  68   0.0000       0.662440        18.0259 
  69   0.0000       0.734744        19.9934 
  70   0.0000       0.734914        19.9980 
  71   0.0000       0.748845        20.3771 
  72   0.0000       0.749253        20.3882 
  73   0.0000       0.769394        20.9363 
  74   0.0000       0.813513        22.1368 
  75   0.0000       0.815685        22.1959 
  76   0.0000       0.820959        22.3394 
  77   0.0000       0.875098        23.8126 
  78   0.0000       0.999234        27.1905 
  79   0.0000       0.999273        27.1916 
  80   0.0000       1.084324        29.5060 
  81   0.0000       1.085022        29.5250 
  82   0.0000       1.230676        33.4884 
  83   0.0000       1.240294        33.7501 
  84   0.0000       1.260283        34.2940 
  85   0.0000       1.312024        35.7020 
  86   0.0000       1.312490        35.7147 
  87   0.0000       1.348438        36.6929 
  88   0.0000       1.354574        36.8598 
  89   0.0000       1.416586        38.5473 
  90   0.0000       1.565411        42.5970 
  91   0.0000       1.577062        42.9140 
  92   0.0000       1.577120        42.9156 
  93   0.0000       1.577711        42.9317 
  94   0.0000       1.607068        43.7305 
  95   0.0000       1.608614        43.7726 
  96   0.0000       1.783393        48.5286 
  97   0.0000       1.789687        48.6998 
  98   0.0000       1.816218        49.4218 
  99   0.0000       1.876367        51.0585 
 100   0.0000       1.887889        51.3721 
 101   0.0000       1.921380        52.2834 
 102   0.0000       2.087428        56.8018 
 103   0.0000       2.121007        57.7155 
 104   0.0000       2.126089        57.8538 
 105   0.0000       2.223243        60.4975 
 106   0.0000       2.223390        60.5015 
 107   0.0000       2.345325        63.8195 
 108   0.0000       2.345336        63.8198 
 109   0.0000       2.347266        63.8724 
 110   0.0000       2.459103        66.9156 
 111   0.0000       2.527947        68.7889 
 112   0.0000       2.528054        68.7918 
 113   0.0000       2.700900        73.4952 
 114   0.0000       2.703736        73.5724 
 115   0.0000       2.754446        74.9523 
 116   0.0000       2.754453        74.9525 
 117   0.0000       2.830733        77.0282 
 118   0.0000       2.830954        77.0342 
 119   0.0000       2.889461        78.6262 
 120   0.0000       2.899139        78.8896 
 121   0.0000       2.923832        79.5615 
 122   0.0000       2.972031        80.8731 
 123   0.0000       2.975061        80.9555 
 124   0.0000       3.202754        87.1514 
 125   0.0000       3.572432        97.2108 
 126   0.0000       4.765085       129.6645 
 127   0.0000       4.765474       129.6751 
 128   0.0000       4.773315       129.8885 
 129   0.0000       4.776437       129.9735 
 130   0.0000       4.877485       132.7231 
 131   0.0000       4.884151       132.9045 
 132   0.0000       5.115027       139.1870 
 133   0.0000       5.115791       139.2077 
 134   0.0000       5.120525       139.3366 
 135   0.0000       5.121182       139.3544 
 136   0.0000       5.181100       140.9849 
 137   0.0000       5.186182       141.1232 
 138   0.0000       5.195570       141.3787 
 139   0.0000       5.293104       144.0327 
 140   0.0000       5.296529       144.1259 
 141   0.0000       5.445626       148.1830 
 142   0.0000       6.228282       169.4802 

                 SPIN DOWN ORBITALS
  NO   OCC          E(Eh)            E(eV) 
   0   1.0000    -196.098095     -5336.1004 
   1   1.0000    -100.984005     -2747.9145 
   2   1.0000     -21.832552      -594.0939 
   3   1.0000     -18.364421      -499.7213 
   4   1.0000     -18.355217      -499.4709 
   5   1.0000     -18.346014      -499.2204 
   6   1.0000      -9.209331      -250.5986 
   7   1.0000      -6.984697      -190.0633 
   8   1.0000      -6.983441      -190.0291 
   9   1.0000      -6.981546      -189.9775 
  10   1.0000      -2.411107       -65.6096 
  11   1.0000      -1.493638       -40.6440 
  12   1.0000      -1.467241       -39.9256 
  13   1.0000      -1.441606       -39.2281 
  14   1.0000      -0.713048       -19.4030 
  15   1.0000      -0.301318        -8.1993 
  16   1.0000      -0.273359        -7.4385 
  17   1.0000      -0.267707        -7.2847 
  18   0.0000      -0.098234        -2.6731 
  19   0.0000      -0.079282        -2.1574 
  20   0.0000      -0.058742        -1.5985 
  21   0.0000      -0.048343        -1.3155 
  22   0.0000      -0.045064        -1.2262 
  23   0.0000      -0.043060        -1.1717 
  24   0.0000      -0.003154        -0.0858 
  25   0.0000       0.000739         0.0201 
  26   0.0000       0.010738         0.2922 
  27   0.0000       0.016181         0.4403 
  28   0.0000       0.035241         0.9589 
  29   0.0000       0.036415         0.9909 
  30   0.0000       0.053310         1.4506 
  31   0.0000       0.054614         1.4861 
  32   0.0000       0.054820         1.4917 
  33   0.0000       0.056693         1.5427 
  34   0.0000       0.056755         1.5444 
  35   0.0000       0.063623         1.7313 
  36   0.0000       0.111443         3.0325 
  37   0.0000       0.123095         3.3496 
  38   0.0000       0.125548         3.4163 
  39   0.0000       0.127012         3.4562 
  40   0.0000       0.162211         4.4140 
  41   0.0000       0.164291         4.4706 
  42   0.0000       0.179862         4.8943 
  43   0.0000       0.191530         5.2118 
  44   0.0000       0.191618         5.2142 
  45   0.0000       0.197834         5.3833 
  46   0.0000       0.201568         5.4849 
  47   0.0000       0.222653         6.0587 
  48   0.0000       0.254433         6.9235 
  49   0.0000       0.254736         6.9317 
  50   0.0000       0.297681         8.1003 
  51   0.0000       0.332514         9.0482 
  52   0.0000       0.336454         9.1554 
  53   0.0000       0.365990         9.9591 
  54   0.0000       0.401183        10.9167 
  55   0.0000       0.401408        10.9229 
  56   0.0000       0.448442        12.2027 
  57   0.0000       0.462723        12.5913 
  58   0.0000       0.462832        12.5943 
  59   0.0000       0.489701        13.3254 
  60   0.0000       0.492821        13.4104 
  61   0.0000       0.548236        14.9183 
  62   0.0000       0.599016        16.3001 
  63   0.0000       0.604150        16.4398 
  64   0.0000       0.606203        16.4956 
  65   0.0000       0.612546        16.6682 
  66   0.0000       0.682243        18.5648 
  67   0.0000       0.704864        19.1803 
  68   0.0000       0.705196        19.1894 
  69   0.0000       0.746633        20.3169 
  70   0.0000       0.746781        20.3210 
  71   0.0000       0.757332        20.6080 
  72   0.0000       0.761992        20.7349 
  73   0.0000       0.776040        21.1171 
  74   0.0000       0.838331        22.8121 
  75   0.0000       0.848066        23.0771 
  76   0.0000       0.857254        23.3271 
  77   0.0000       0.892689        24.2913 
  78   0.0000       1.000514        27.2254 
  79   0.0000       1.000527        27.2257 
  80   0.0000       1.094845        29.7922 
  81   0.0000       1.094886        29.7934 
  82   0.0000       1.264041        34.3963 
  83   0.0000       1.271448        34.5979 
  84   0.0000       1.279166        34.8079 
  85   0.0000       1.397908        38.0390 
  86   0.0000       1.397955        38.0403 
  87   0.0000       1.416017        38.5318 
  88   0.0000       1.417136        38.5622 
  89   0.0000       1.458856        39.6975 
  90   0.0000       1.599942        43.5366 
  91   0.0000       1.609665        43.8012 
  92   0.0000       1.635182        44.4956 
  93   0.0000       1.635256        44.4976 
  94   0.0000       1.660361        45.1807 
  95   0.0000       1.660628        45.1880 
  96   0.0000       1.816357        49.4256 
  97   0.0000       1.817939        49.4686 
  98   0.0000       1.830780        49.8181 
  99   0.0000       1.907700        51.9112 
 100   0.0000       1.916896        52.1614 
 101   0.0000       1.953870        53.1675 
 102   0.0000       2.164119        58.8887 
 103   0.0000       2.194105        59.7046 
 104   0.0000       2.208198        60.0881 
 105   0.0000       2.223921        60.5160 
 106   0.0000       2.224246        60.5248 
 107   0.0000       2.346432        63.8497 
 108   0.0000       2.351152        63.9781 
 109   0.0000       2.367704        64.4285 
 110   0.0000       2.503916        68.1350 
 111   0.0000       2.539188        69.0948 
 112   0.0000       2.545522        69.2672 
 113   0.0000       2.753550        74.9279 
 114   0.0000       2.753552        74.9280 
 115   0.0000       2.790032        75.9206 
 116   0.0000       2.791143        75.9509 
 117   0.0000       2.844341        77.3985 
 118   0.0000       2.844979        77.4158 
 119   0.0000       2.926963        79.6467 
 120   0.0000       2.934676        79.8566 
 121   0.0000       2.945257        80.1445 
 122   0.0000       3.000920        81.6592 
 123   0.0000       3.020301        82.1866 
 124   0.0000       3.264291        88.8259 
 125   0.0000       3.621619        98.5493 
 126   0.0000       4.888697       133.0282 
 127   0.0000       4.890948       133.0895 
 128   0.0000       4.899385       133.3191 
 129   0.0000       4.899469       133.3213 
 130   0.0000       4.970990       135.2675 
 131   0.0000       5.004929       136.1910 
 132   0.0000       5.200529       141.5136 
 133   0.0000       5.200567       141.5146 
 134   0.0000       5.208680       141.7354 
 135   0.0000       5.209216       141.7500 
 136   0.0000       5.246078       142.7530 
 137   0.0000       5.254408       142.9797 
 138   0.0000       5.273761       143.5063 
 139   0.0000       5.352378       145.6456 
 140   0.0000       5.378707       146.3621 
 141   0.0000       5.537027       150.6702 
 142   0.0000       6.234893       169.6601 

                    ********************************
                    * MULLIKEN POPULATION ANALYSIS *
                    ********************************

--------------------------------------------
MULLIKEN ATOMIC CHARGES AND SPIN POPULATIONS
--------------------------------------------
   0 V :    0.372408    4.040959
   1 Cl:   -0.372408   -0.040959
Sum of atomic charges         :   -0.0000000
Sum of atomic spin populations:    4.0000000

-----------------------------------------------------
MULLIKEN REDUCED ORBITAL CHARGES AND SPIN POPULATIONS
-----------------------------------------------------
CHARGE
  0 V s       :     6.687257  s :     6.687257
      pz      :     4.104368  p :    12.188188
      px      :     4.045511
      py      :     4.038309
      dz2     :     0.682202  d :     3.728039
      dxz     :     0.686978
      dyz     :     0.452995
      dx2y2   :     0.991666
      dxy     :     0.914197
      f0      :     0.005714  f :     0.019660
      f+1     :     0.006824
      f-1     :     0.006568
      f+2     :     0.000138
      f-2     :     0.000389
      f+3     :     0.000011
      f-3     :     0.000015
      g0      :     0.001474  g :     0.004448
      g+1     :     0.001468
      g-1     :     0.001449
      g+2     :     0.000000
      g-2     :     0.000039
      g+3     :     0.000002
      g-3     :     0.000005
      g+4     :     0.000005
      g-4     :     0.000005
  1 Cls       :     5.977274  s :     5.977274
      pz      :     3.629149  p :    11.372985
      px      :     3.883459
      py      :     3.860377
      dz2     :     0.002195  d :     0.020096
      dxz     :     0.008047
      dyz     :     0.006935
      dx2y2   :     0.001448
      dxy     :     0.001471
      f0      :     0.000219  f :     0.002052
      f+1     :     0.000521
      f-1     :     0.000520
      f+2     :     0.000400
      f-2     :     0.000389
      f+3     :     0.000002
      f-3     :     0.000002

SPIN
  0 V s       :     0.558881  s :     0.558881
      pz      :     0.037268  p :     0.080043
      px      :     0.025168
      py      :     0.017607
      dz2     :     0.518955  d :     3.401629
      dxz     :     0.607932
      dyz     :     0.368975
      dx2y2   :     0.991659
      dxy     :     0.914108
      f0      :    -0.000947  f :     0.001175
      f+1     :     0.001082
      f-1     :     0.000576
      f+2     :     0.000134
      f-2     :     0.000326
      f+3     :    -0.000002
      f-3     :     0.000006
      g0      :    -0.000200  g :    -0.000769
      g+1     :    -0.000284
      g-1     :    -0.000329
      g+2     :    -0.000000
      g-2     :     0.000029
      g+3     :     0.000001
      g-3     :     0.000004
      g+4     :     0.000005
      g-4     :     0.000005
  1 Cls       :     0.016006  s :     0.016006
      pz      :    -0.042358  p :    -0.069135
      px      :    -0.004681
      py      :    -0.022095
      dz2     :     0.001950  d :     0.010640
      dxz     :     0.003478
      dyz     :     0.002306
      dx2y2   :     0.001447
      dxy     :     0.001458
      f0      :     0.000490  f :     0.001531
      f+1     :     0.000129
      f-1     :     0.000131
      f+2     :     0.000399
      f-2     :     0.000384
      f+3     :    -0.000002
      f-3     :    -0.000002


                     *******************************
                     * LOEWDIN POPULATION ANALYSIS *
                     *******************************

-------------------------------------------
LOEWDIN ATOMIC CHARGES AND SPIN POPULATIONS
-------------------------------------------
   0 V :   -0.066415    3.906938
   1 Cl:    0.066415    0.093062

----------------------------------------------------
LOEWDIN REDUCED ORBITAL CHARGES AND SPIN POPULATIONS
----------------------------------------------------
CHARGE
  0 V s       :     6.508039  s :     6.508039
      pz      :     4.184788  p :    12.294015
      px      :     4.061380
      py      :     4.047846
      dz2     :     0.814211  d :     3.941418
      dxz     :     0.727856
      dyz     :     0.507308
      dx2y2   :     0.984439
      dxy     :     0.907603
      f0      :     0.104004  f :     0.279243
      f+1     :     0.088549
      f-1     :     0.085297
      f+2     :     0.000543
      f-2     :     0.000824
      f+3     :     0.000011
      f-3     :     0.000015
      g0      :     0.017104  g :     0.043701
      g+1     :     0.013447
      g-1     :     0.013030
      g+2     :     0.000044
      g-2     :     0.000058
      g+3     :     0.000002
      g-3     :     0.000005
      g+4     :     0.000005
      g-4     :     0.000005
  1 Cls       :     5.576987  s :     5.576987
      pz      :     3.720061  p :    11.075783
      px      :     3.686098
      py      :     3.669624
      dz2     :     0.116777  d :     0.194055
      dxz     :     0.037589
      dyz     :     0.029870
      dx2y2   :     0.005079
      dxy     :     0.004741
      f0      :     0.047882  f :     0.086760
      f+1     :     0.017890
      f-1     :     0.014177
      f+2     :     0.003547
      f-2     :     0.003259
      f+3     :     0.000002
      f-3     :     0.000002

SPIN
  0 V s       :     0.506970  s :     0.506970
      pz      :     0.038221  p :     0.096494
      px      :     0.035826
      py      :     0.022447
      dz2     :     0.498688  d :     3.301023
      dxz     :     0.567525
      dyz     :     0.342863
      dx2y2   :     0.984432
      dxy     :     0.907515
      f0      :    -0.000959  f :     0.003346
      f+1     :     0.002952
      f-1     :     0.000050
      f+2     :     0.000538
      f-2     :     0.000761
      f+3     :    -0.000002
      f-3     :     0.000006
      g0      :    -0.000437  g :    -0.000895
      g+1     :    -0.000108
      g-1     :    -0.000457
      g+2     :     0.000043
      g-2     :     0.000048
      g+3     :     0.000001
      g-3     :     0.000004
      g+4     :     0.000005
      g-4     :     0.000005
  1 Cls       :     0.021080  s :     0.021080
      pz      :     0.016927  p :     0.000014
      px      :    -0.002035
      py      :    -0.014878
      dz2     :     0.007153  d :     0.047959
      dxz     :     0.019385
      dyz     :     0.011616
      dx2y2   :     0.005078
      dxy     :     0.004728
      f0      :     0.002404  f :     0.024008
      f+1     :     0.009279
      f-1     :     0.005528
      f+2     :     0.003547
      f-2     :     0.003253
      f+3     :    -0.000002
      f-3     :    -0.000002


                      *****************************
                      * MAYER POPULATION ANALYSIS *
                      *****************************

  NA   - Mulliken gross atomic population
  ZA   - Total nuclear charge
  QA   - Mulliken gross atomic charge
  VA   - Mayer's total valence
  BVA  - Mayer's bonded valence
  FA   - Mayer's free valence

  ATOM       NA         ZA         QA         VA         BVA        FA
  0 V     22.6276    23.0000     0.3724     5.0189     1.1676     3.8513
  1 Cl    17.3724    17.0000    -0.3724     1.1746     1.1676     0.0071

  Mayer bond orders larger than 0.100000
B(  0-V ,  1-Cl) :   1.1676 

-------
TIMINGS
-------

Total SCF time: 0 days 0 hours 0 min 5 sec 

Total time                  ....       5.907 sec
Sum of individual times     ....       5.718 sec  ( 96.8%)

Fock matrix formation       ....       5.222 sec  ( 88.4%)
  Split-RI-J                ....       3.966 sec  ( 75.9% of F)
  XC integration            ....       1.090 sec  ( 20.9% of F)
    Basis function eval.    ....       0.138 sec  ( 12.7% of XC)
    Density eval.           ....       0.152 sec  ( 14.0% of XC)
    XC-Functional eval.     ....       0.036 sec  (  3.3% of XC)
    XC-Potential eval.      ....       0.396 sec  ( 36.4% of XC)
Diagonalization             ....       0.142 sec  (  2.4%)
Density matrix formation    ....       0.018 sec  (  0.3%)
Population analysis         ....       0.007 sec  (  0.1%)
Initial guess               ....       0.118 sec  (  2.0%)
Orbital Transformation      ....       0.000 sec  (  0.0%)
Orbital Orthonormalization  ....       0.000 sec  (  0.0%)
DIIS solution               ....       0.051 sec  (  0.9%)
Grid generation             ....       0.160 sec  (  2.7%)


-------------------------------------------------------------------------------
                          DFT DISPERSION CORRECTION                            
                                                                               
                              DFTD3 V3.1  Rev 1                                
                          USING Becke-Johnson damping                          
-------------------------------------------------------------------------------
The TPSS functional is recognized
Active option DFTDOPT                   ...         4   

molecular C6(AA) [au] = 995.682079 


            DFT-D V3
 parameters
 s6 scaling factor         :     1.0000 
 a1 scaling factor         :     0.4535 
 s8 scaling factor         :     1.9435 
 a2 scaling factor         :     4.4752 
 ad hoc parameters k1-k3   :    16.0000     1.3333    -4.0000 

 Edisp/kcal,au: -1.166012958272  -0.001858159728 
 E6   /kcal   :  -0.390844430 
 E8   /kcal   :  -0.775168528 
 % E8         :  66.480267004 

-------------------------   ----------------
Dispersion correction           -0.001858160
-------------------------   ----------------


-------------------------   --------------------
FINAL SINGLE POINT ENERGY     -1404.296935438941
-------------------------   --------------------


                            ***************************************
                            *     ORCA property calculations      *
                            ***************************************

                                    ---------------------
                                    Active property flags
                                    ---------------------
   (+) Dipole Moment


------------------------------------------------------------------------------
                       ORCA ELECTRIC PROPERTIES CALCULATION
------------------------------------------------------------------------------

Dipole Moment Calculation                       ... on
Quadrupole Moment Calculation                   ... off
Polarizability Calculation                      ... off
GBWName                                         ... 15_VCl.gbw
Electron density file                           ... 15_VCl.scfp
The origin for moment calculation is the CENTER OF MASS  = ( 0.000000,  0.000000  1.515091)

-------------
DIPOLE MOMENT
-------------
                                X             Y             Z
Electronic contribution:     -0.00000      -0.00000      -4.04876
Nuclear contribution   :      0.00000       0.00000       2.44617
                        -----------------------------------------
Total Dipole Moment    :     -0.00000      -0.00000      -1.60259
                        -----------------------------------------
Magnitude (a.u.)       :      1.60259
Magnitude (Debye)      :      4.07347



--------------------
Rotational spectrum 
--------------------
 
Rotational constants in cm-1:     0.000000     0.164840     0.164840 
Rotational constants in MHz :     0.000000  4941.766851  4941.766851 

 Dipole components along the rotational axes: 
x,y,z [a.u.] :    -1.602593    -0.000000    -0.000000 
x,y,z [Debye]:    -4.073468    -0.000000    -0.000000 

 

Timings for individual modules:

Sum of individual times         ...        9.877 sec (=   0.165 min)
GTO integral calculation        ...        3.626 sec (=   0.060 min)  36.7 %
SCF iterations                  ...        6.251 sec (=   0.104 min)  63.3 %
                             ****ORCA TERMINATED NORMALLY****
TOTAL RUN TIME: 0 days 0 hours 0 minutes 10 seconds 492 msec
