
                                 *****************
                                 * O   R   C   A *
                                 *****************

           --- An Ab Initio, DFT and Semiempirical electronic structure package ---

                  #######################################################
                  #                        -***-                        #
                  #          Department of theory and spectroscopy      #
                  #               Directorship: Frank Neese             #
                  #        Max Planck Institute fuer Kohlenforschung    #
                  #                Kaiser Wilhelm Platz 1               #
                  #                 D-45470 Muelheim/Ruhr               #
                  #                      Germany                        #
                  #                                                     #
                  #                  All rights reserved                #
                  #                        -***-                        #
                  #######################################################


                         Program Version 4.2.0 -  RELEASE  -


 With contributions from (in alphabetic order):
   Daniel Aravena         : Magnetic Suceptibility
   Michael Atanasov       : Ab Initio Ligand Field Theory (pilot matlab implementation)
   Alexander A. Auer      : GIAO ZORA, VPT2
   Ute Becker             : Parallelization
   Giovanni Bistoni       : ED, misc. LED, open-shell LED, HFLED
   Martin Brehm           : Molecular dynamics
   Dmytro Bykov           : SCF Hessian
   Vijay G. Chilkuri      : MRCI spin determinant printing, contributions to CSF-ICE
   Dipayan Datta          : RHF DLPNO-CCSD density
   Achintya Kumar Dutta   : EOM-CC, STEOM-CC
   Dmitry Ganyushin       : Spin-Orbit,Spin-Spin,Magnetic field MRCI
   Miquel Garcia          : C-PCM Hessian, Gaussian charge scheme
   Yang Guo               : DLPNO-NEVPT2, CIM, IAO-localization
   Andreas Hansen         : Spin unrestricted coupled pair/coupled cluster methods
   Benjamin Helmich-Paris : CASSCF linear response (MC-RPA)
   Lee Huntington         : MR-EOM, pCC
   Robert Izsak           : Overlap fitted RIJCOSX, COSX-SCS-MP3, EOM
   Christian Kollmar      : KDIIS, OOCD, Brueckner-CCSD(T), CCSD density
   Simone Kossmann        : Meta GGA functionals, TD-DFT gradient, OOMP2, MP2 Hessian
   Martin Krupicka        : AUTO-CI
   Lucas Lang             : DCDCAS
   Dagmar Lenk            : GEPOL surface, SMD
   Dimitrios Liakos       : Extrapolation schemes; Compound Job, initial MDCI parallelization
   Dimitrios Manganas     : Further ROCIS development; embedding schemes
   Dimitrios Pantazis     : SARC Basis sets
   Taras Petrenko         : DFT Hessian,TD-DFT gradient, ASA, ECA, R-Raman, ABS, FL, XAS/XES, NRVS
   Peter Pinski           : DLPNO-MP2, DLPNO-MP2 Gradient
   Christoph Reimann      : Effective Core Potentials
   Marius Retegan         : Local ZFS, SOC
   Christoph Riplinger    : Optimizer, TS searches, QM/MM, DLPNO-CCSD(T), (RO)-DLPNO pert. Triples
   Tobias Risthaus        : Range-separated hybrids, TD-DFT gradient, RPA, STAB
   Michael Roemelt        : Original ROCIS implementation
   Masaaki Saitow         : Open-shell DLPNO-CCSD energy and density
   Barbara Sandhoefer     : DKH picture change effects
   Avijit Sen             : IP-ROCIS
   Kantharuban Sivalingam : CASSCF convergence, NEVPT2, FIC-MRCI
   Bernardo de Souza      : ESD, SOC TD-DFT
   Georgi Stoychev        : AutoAux, RI-MP2 NMR
   Willem Van den Heuvel  : Paramagnetic NMR
   Boris Wezisla          : Elementary symmetry handling
   Frank Wennmohs         : Technical directorship


 We gratefully acknowledge several colleagues who have allowed us to
 interface, adapt or use parts of their codes:
   Stefan Grimme, W. Hujo, H. Kruse,             : VdW corrections, initial TS optimization,
                  C. Bannwarth                     DFT functionals, gCP, sTDA/sTD-DF
   Ed Valeev, F. Pavosevic, A. Kumar             : LibInt (2-el integral package), F12 methods
   Garnet Chan, S. Sharma, J. Yang, R. Olivares  : DMRG
   Ulf Ekstrom                                   : XCFun DFT Library
   Mihaly Kallay                                 : mrcc  (arbitrary order and MRCC methods)
   Andreas Klamt, Michael Diedenhofen            : otool_cosmo (COSMO solvation model)
   Jiri Pittner, Ondrej Demel                    : Mk-CCSD
   Frank Weinhold                                : gennbo (NPA and NBO analysis)
   Christopher J. Cramer and Donald G. Truhlar   : smd solvation model
   Lars Goerigk                                  : TD-DFT with DH, B97 family of functionals
   V. Asgeirsson, H. Jonsson                     : NEB implementation
   FAccTs GmbH                                   : IRC, NEB, NEB-TS, Multilevel, MM, QM/MM, CI optimization
   S Lehtola, MJT Oliveira, MAL Marques          : LibXC Library


 Your calculation uses the libint2 library for the computation of 2-el integrals
 For citations please refer to: http://libint.valeyev.net

 Your ORCA version has been built with support for libXC version: 4.2.3
 For citations please refer to: https://tddft.org/programs/libxc/

 This ORCA versions uses:
   CBLAS   interface :  Fast vector & matrix operations
   LAPACKE interface :  Fast linear algebra routines
   SCALAPACK package :  Parallel linear algebra routines


Your calculation utilizes the atom-pairwise dispersion correction
with the Becke-Johnson damping scheme (D3BJ)
Cite in your paper:
S.Grimme, S.Ehrlich, L.Goerigk, J Comput Chem, (2011), 32, 1456–1465 
S.Grimme, J.Antony, S.Ehrlich and H.Krieg, J.Chem.Phys., 132, (2010), 154104 
   

----- Orbital basis set information -----
Your calculation utilizes the basis: aug-cc-pVTZ 
    H, B-Ne : Obtained from the ccRepo (grant-hill.group.shef.ac.uk/ccrepo) Feb. 2017
              R. A. Kendall, T. H. Dunning, Jr., R. J. Harrison, J. Chem. Phys. 96, 6796 (1992)
         He : Obtained from the ccRepo (grant-hill.group.shef.ac.uk/ccrepo) Feb. 2017
              D. E. Woon, T. H. Dunning, Jr., J. Chem. Phys. 100, 2975 (1994)
  Li-Be, Na : Obtained from the ccRepo (grant-hill.group.shef.ac.uk/ccrepo) Feb. 2017
              B. P. Prascher, D. E. Woon, K. A. Peterson, T. H. Dunning, Jr., A. K. Wilson, Theor. Chem. Acc. 128, 69 (2011)
         Mg : Obtained from the Peterson Research Group Website (tyr0.chem.wsu.edu/~kipeters) Feb. 2017
              B. P. Prascher, D. E. Woon, K. A. Peterson, T. H. Dunning, Jr., A. K. Wilson, Theor. Chem. Acc. 128, 69 (2011)
      Al-Ar : Obtained from the ccRepo (grant-hill.group.shef.ac.uk/ccrepo) Feb. 2017
              D. E. Woon, T. H. Dunning, Jr., J. Chem. Phys. 98, 1358 (1993)
      Sc-Zn : Obtained from the ccRepo (grant-hill.group.shef.ac.uk/ccrepo) Feb. 2017
              N. B. Balabanov, K. A. Peterson, J. Chem. Phys. 123, 064107 (2005)
              N. B. Balabanov, K. A. Peterson, J. Chem. Phys. 125, 074110 (2006)
      Ga-Kr : Obtained from the ccRepo (grant-hill.group.shef.ac.uk/ccrepo) Feb. 2017
              A. K. Wilson, D. E. Woon, K. A. Peterson, T. H. Dunning, Jr., J. Chem. Phys. 110, 7667 (1999)
     Ag, Au : Obtained from the Peterson Research Group Website (tyr0.chem.wsu.edu/~kipeters) Feb. 2017
              K. A. Peterson, C. Puzzarini, Theor. Chem. Acc. 114, 283 (2005)

----- AuxJ basis set information -----
Your calculation utilizes the auxiliary basis: def2/J
   F. Weigend, Phys. Chem. Chem. Phys. 8, 1057 (2006).

================================================================================
                                        WARNINGS
                       Please study these warnings very carefully!
================================================================================


WARNING: your system is open-shell and RHF/RKS was chosen
  ===> : WILL SWITCH to UHF/UKS


INFO   : the flag for use of LIBINT has been found!

================================================================================
                                       INPUT FILE
================================================================================
NAME = 17_VO.in
|  1> #
|  2> # 17_VO tpss/aug-cc-pvtz
|  3> #
|  4> ! tpss d3bj aug-cc-pvtz def2/j grid4 nofinalgrid
|  5> 
|  6> *xyz 0 4
|  7>   V   0.00000000000000      0.00000000000000      0.20415600493149
|  8>   O   0.00000000000000      0.00000000000000      1.79584399506851
|  9> *
| 10> 
| 11> %pal
| 12> nprocs 24
| 13> end
| 14> 
| 15> 
| 16>                          ****END OF INPUT****
================================================================================

                       ****************************
                       * Single Point Calculation *
                       ****************************

---------------------------------
CARTESIAN COORDINATES (ANGSTROEM)
---------------------------------
  V      0.000000    0.000000    0.204156
  O      0.000000    0.000000    1.795844

----------------------------
CARTESIAN COORDINATES (A.U.)
----------------------------
  NO LB      ZA    FRAG     MASS         X           Y           Z
   0 V    23.0000    0    50.940    0.000000    0.000000    0.385799
   1 O     8.0000    0    15.999    0.000000    0.000000    3.393653

--------------------------------
INTERNAL COORDINATES (ANGSTROEM)
--------------------------------
 V      0   0   0     0.000000000000     0.00000000     0.00000000
 O      1   0   0     1.591687990137     0.00000000     0.00000000

---------------------------
INTERNAL COORDINATES (A.U.)
---------------------------
 V      0   0   0     0.000000000000     0.00000000     0.00000000
 O      1   0   0     3.007854392011     0.00000000     0.00000000

---------------------
BASIS SET INFORMATION
---------------------
There are 2 groups of distinct atoms

 Group   1 Type V   : 116s77p23d3f2g contracted to 8s7p5d3f2g pattern {19191919191911/151515151511/77711/111/11}
 Group   2 Type O   : 19s6p3d2f contracted to 5s4p3d2f pattern {88111/3111/111/11}

Atom   0V    basis set group =>   1
Atom   1O    basis set group =>   2
---------------------------------
AUXILIARY/J BASIS SET INFORMATION
---------------------------------
There are 2 groups of distinct atoms

 Group   1 Type V   : 19s5p5d3f3g contracted to 8s5p5d2f3g pattern {121111111/11111/11111/21/111}
 Group   2 Type O   : 12s5p4d2f1g contracted to 6s4p3d1f1g pattern {711111/2111/211/2/1}

Atom   0V    basis set group =>   1
Atom   1O    basis set group =>   2


           ************************************************************
           *        Program running with 24 parallel MPI-processes    *
           *              working on a common directory               *
           ************************************************************
------------------------------------------------------------------------------
                           ORCA GTO INTEGRAL CALCULATION
                           -- RI-GTO INTEGRALS CHOSEN --
------------------------------------------------------------------------------

                         BASIS SET STATISTICS AND STARTUP INFO

Gaussian basis set:
 # of primitive gaussian shells          ...  251
 # of primitive gaussian functions       ...  567
 # of contracted shells                  ...   39
 # of contracted basis functions         ...  139
 Highest angular momentum                ...    4
 Maximum contraction depth               ...   19
Auxiliary gaussian basis set:
 # of primitive gaussian shells          ...   59
 # of primitive gaussian functions       ...  177
 # of contracted shells                  ...   38
 # of contracted aux-basis functions     ...  138
 Highest angular momentum                ...    4
 Maximum contraction depth               ...   12
Ratio of auxiliary to basis functions    ...  0.99
Integral package used                  ... LIBINT
 One Electron integrals                  ... done
 Ordering auxiliary basis shells         ... done
 Integral threshhold             Thresh  ...  1.000e-10
 Primitive cut-off               TCut    ...  1.000e-11
 Pre-screening matrix                    ... done
 Shell pair data                         ... 
 Ordering of the shell pairs             ... done (   0.000 sec) 780 of 780 pairs
 Determination of significant pairs      ... done (   0.000 sec)
 Creation of shell pair data             ... done (   0.001 sec)
 Storage of shell pair data              ... done (   0.048 sec)
 Shell pair data done in (   0.049 sec)
 Computing two index integrals           ... done
 Cholesky decomposition of the V-matrix  ... done


Timings:
 Total evaluation time                   ...   2.726 sec (  0.045 min)
 One electron matrix time                ...   0.051 sec (  0.001 min) =  1.9%
 Schwartz matrix evaluation time         ...   2.599 sec (  0.043 min) = 95.3%
 Two index repulsion integral time       ...   0.002 sec (  0.000 min) =  0.1%
 Cholesky decomposition of V             ...   0.001 sec (  0.000 min) =  0.0%
 Three index repulsion integral time     ...   0.000 sec (  0.000 min) =  0.0%



           ************************************************************
           *        Program running with 24 parallel MPI-processes    *
           *              working on a common directory               *
           ************************************************************
-------------------------------------------------------------------------------
                                 ORCA SCF
-------------------------------------------------------------------------------

------------
SCF SETTINGS
------------
Hamiltonian:
 Density Functional     Method          .... DFT(GTOs)
 Exchange Functional    Exchange        .... TPSS
 Correlation Functional Correlation     .... TPSS
 LDA part of GGA corr.  LDAOpt          .... PW91-LDA
 Gradients option       PostSCFGGA      .... off
   Density functional embedding theory  .... OFF
   NL short-range parameter             ....  5.000000
 RI-approximation to the Coulomb term is turned on
   Number of auxiliary basis functions  .... 138


General Settings:
 Integral files         IntName         .... 17_VO
 Hartree-Fock type      HFTyp           .... UHF
 Total Charge           Charge          ....    0
 Multiplicity           Mult            ....    4
 Number of Electrons    NEL             ....   31
 Basis Dimension        Dim             ....  139
 Nuclear Repulsion      ENuc            ....     61.1731739704 Eh

Convergence Acceleration:
 DIIS                   CNVDIIS         .... on
   Start iteration      DIISMaxIt       ....    12
   Startup error        DIISStart       ....  0.200000
   # of expansion vecs  DIISMaxEq       ....     5
   Bias factor          DIISBfac        ....   1.050
   Max. coefficient     DIISMaxC        ....  10.000
 Newton-Raphson         CNVNR           .... off
 SOSCF                  CNVSOSCF        .... off
 Level Shifting         CNVShift        .... on
   Level shift para.    LevelShift      ....    0.2500
   Turn off err/grad.   ShiftErr        ....    0.0010
 Zerner damping         CNVZerner       .... off
 Static damping         CNVDamp         .... on
   Fraction old density DampFac         ....    0.7000
   Max. Damping (<1)    DampMax         ....    0.9800
   Min. Damping (>=0)   DampMin         ....    0.0000
   Turn off err/grad.   DampErr         ....    0.1000
 Fernandez-Rico         CNVRico         .... off

SCF Procedure:
 Maximum # iterations   MaxIter         ....   125
 SCF integral mode      SCFMode         .... Direct
   Integral package                     .... LIBINT
 Reset frequency        DirectResetFreq ....    20
 Integral Threshold     Thresh          ....  1.000e-10 Eh
 Primitive CutOff       TCut            ....  1.000e-11 Eh

Convergence Tolerance:
 Convergence Check Mode ConvCheckMode   .... Total+1el-Energy
 Convergence forced     ConvForced      .... 0
 Energy Change          TolE            ....  1.000e-06 Eh
 1-El. energy change                    ....  1.000e-03 Eh
 DIIS Error             TolErr          ....  1.000e-06


Diagonalization of the overlap matrix:
Smallest eigenvalue                        ... 3.432e-05
Time for diagonalization                   ...    0.005 sec
Threshold for overlap eigenvalues          ... 1.000e-08
Number of eigenvalues below threshold      ... 0
Time for construction of square roots      ...    0.002 sec
Total time needed                          ...    0.008 sec

-------------------
DFT GRID GENERATION
-------------------

General Integration Accuracy     IntAcc      ...  4.670
Radial Grid Type                 RadialGrid  ... Gauss-Chebyshev
Angular Grid (max. acc.)         AngularGrid ... Lebedev-302
Angular grid pruning method      GridPruning ... 3 (G Style)
Weight generation scheme         WeightScheme... Becke
Basis function cutoff            BFCut       ...    1.0000e-10
Integration weight cutoff        WCut        ...    1.0000e-14
Grids for H and He will be reduced by one unit

# of grid points (after initial pruning)     ...  15876 (   0.0 sec)
# of grid points (after weights+screening)   ...  15834 (   0.0 sec)
nearest neighbour list constructed           ...    0.0 sec
Grid point re-assignment to atoms done       ...    0.0 sec
Grid point division into batches done        ...    0.1 sec
Reduced shell lists constructed in    0.1 sec

Total number of grid points                  ...    15834
Total number of batches                      ...      248
Average number of points per batch           ...       63
Average number of grid points per atom       ...     7917
Average number of shells per batch           ...    17.33 (44.44%)
Average number of basis functions per batch  ...    45.67 (32.85%)
Average number of large shells per batch     ...    10.92 (62.98%)
Average number of large basis fcns per batch ...    28.08 (61.50%)
Maximum spatial batch extension              ...  28.57, 31.41, 18.14 au
Average spatial batch extension              ...   0.89,  0.95,  0.67 au

Time for grid setup =    0.184 sec

------------------------------
INITIAL GUESS: MODEL POTENTIAL
------------------------------
Loading Hartree-Fock densities                     ... done
Calculating cut-offs                               ... done
Setting up the integral package                    ... done
Initializing the effective Hamiltonian             ... done
Starting the Coulomb interaction                   ... done (   0.0 sec)
Reading the grid                                   ... done
Mapping shells                                     ... done
Starting the XC term evaluation                    ... done (   0.0 sec)
  promolecular density results
     # of electrons  =     30.999998472
     EX              =    -52.060157362
     EC              =     -1.220108770
     EX+EC           =    -53.280266132
Transforming the Hamiltonian                       ... done (   0.0 sec)
Diagonalizing the Hamiltonian                      ... done (   0.0 sec)
Back transforming the eigenvectors                 ... done (   0.0 sec)
Now organizing SCF variables                       ... done
                      ------------------
                      INITIAL GUESS DONE (   0.3 sec)
                      ------------------
--------------
SCF ITERATIONS
--------------
ITER       Energy         Delta-E        Max-DP      RMS-DP      [F,P]     Damp
               ***  Starting incremental Fock matrix formation  ***
  0  -1019.0155886129   0.000000000000 0.18490961  0.00278291  0.4606050 0.7000
  1  -1019.0345264026  -0.018937789782 0.19944482  0.00365639  0.2221783 0.7000
                               ***Turning on DIIS***
  2  -1019.1542126880  -0.119686285387 0.18916683  0.00331059  0.0818851 0.0000
  3  -1019.1001059906   0.054106697410 0.04513739  0.00083008  0.3616793 0.7000
  4  -1019.1406240978  -0.040518107216 0.03539325  0.00064178  0.3246338 0.7000
  5  -1019.1799307005  -0.039306602631 0.02426658  0.00045240  0.2837950 0.7000
  6  -1019.2130147958  -0.033084095310 0.01529015  0.00029533  0.2439277 0.7000
  7  -1019.2383467554  -0.025331959648 0.02663693  0.00044282  0.2085220 0.7000
  8  -1019.2742998832  -0.035953127736 0.02081135  0.00038337  0.1360858 0.7000
  9  -1019.2919643543  -0.017664471127 0.04786387  0.00075436  0.0868962 0.0000
 10  -1019.3081444450  -0.016180090741 0.00961071  0.00018233  0.0212256 0.0000
 11  -1019.3085931687  -0.000448723695 0.00813293  0.00014015  0.0134547 0.0000
 12  -1019.3087470265  -0.000153857813 0.00492559  0.00008538  0.0067519 0.0000
 13  -1019.3088034445  -0.000056417918 0.00145805  0.00002392  0.0034297 0.0000
 14  -1019.3088210198  -0.000017575307 0.00078009  0.00001404  0.0013922 0.0000
 15  -1019.3088257341  -0.000004714359 0.00099902  0.00001702  0.0005632 0.0000
 16  -1019.3088285348  -0.000002800662 0.00044713  0.00000680  0.0000561 0.0000
 17  -1019.3088288145  -0.000000279747 0.00019714  0.00000308  0.0000817 0.0000
                 **** Energy Check signals convergence ****

               *****************************************************
               *                     SUCCESS                       *
               *           SCF CONVERGED AFTER  18 CYCLES          *
               *****************************************************


----------------
TOTAL SCF ENERGY
----------------

Total Energy       :        -1019.30882868 Eh          -27736.80334 eV

Components:
Nuclear Repulsion  :           61.17317397 Eh            1664.60669 eV
Electronic Energy  :        -1080.48200265 Eh          -29401.41003 eV
One Electron Energy:        -1521.98655581 Eh          -41415.35970 eV
Two Electron Energy:          441.50455316 Eh           12013.94967 eV

Virial components:
Potential Energy   :        -2036.77629033 Eh          -55423.50054 eV
Kinetic Energy     :         1017.46746165 Eh           27686.69720 eV
Virial Ratio       :            2.00180976


DFT components:
N(Alpha)           :       16.999995412923 electrons
N(Beta)            :       13.999994358332 electrons
N(Total)           :       30.999989771255 electrons
E(X)               :      -52.689937842293 Eh       
E(C)               :       -1.227172109370 Eh       
E(XC)              :      -53.917109951663 Eh       
DFET-embed. en.    :        0.000000000000 Eh       

---------------
SCF CONVERGENCE
---------------

  Last Energy change         ...    1.3399e-07  Tolerance :   1.0000e-06
  Last MAX-Density change    ...    1.1798e-04  Tolerance :   1.0000e-05
  Last RMS-Density change    ...    1.8303e-06  Tolerance :   1.0000e-06
  Last DIIS Error            ...    9.0402e-05  Tolerance :   1.0000e-06

             **** THE GBW FILE WAS UPDATED (17_VO.gbw) ****
             **** DENSITY FILE WAS UPDATED (17_VO.scfp) ****
             **** ENERGY FILE WAS UPDATED (17_VO.en.tmp) ****
----------------------
UHF SPIN CONTAMINATION
----------------------

Warning: in a DFT calculation there is little theoretical justification to 
         calculate <S**2> as in Hartree-Fock theory. We will do it anyways
         but you should keep in mind that the values have only limited relevance

Expectation value of <S**2>     :     3.794172
Ideal value S*(S+1) for S=1.5   :     3.750000
Deviation                       :     0.044172

             **** THE GBW FILE WAS UPDATED (17_VO.gbw) ****
             **** DENSITY FILE WAS UPDATED (17_VO.scfp) ****
----------------
ORBITAL ENERGIES
----------------
                 SPIN UP ORBITALS
  NO   OCC          E(Eh)            E(eV) 
   0   1.0000    -196.118481     -5336.6552 
   1   1.0000     -21.894565      -595.7814 
   2   1.0000     -18.876593      -513.6582 
   3   1.0000     -18.418406      -501.1903 
   4   1.0000     -18.407151      -500.8840 
   5   1.0000     -18.407151      -500.8840 
   6   1.0000      -2.528690       -68.8092 
   7   1.0000      -1.604536       -43.6616 
   8   1.0000      -1.581949       -43.0470 
   9   1.0000      -1.581949       -43.0470 
  10   1.0000      -0.810519       -22.0554 
  11   1.0000      -0.304777        -8.2934 
  12   1.0000      -0.292148        -7.9498 
  13   1.0000      -0.292148        -7.9498 
  14   1.0000      -0.168391        -4.5822 
  15   1.0000      -0.163240        -4.4420 
  16   1.0000      -0.163239        -4.4420 
  17   0.0000      -0.112061        -3.0493 
  18   0.0000      -0.112061        -3.0493 
  19   0.0000      -0.082436        -2.2432 
  20   0.0000      -0.022801        -0.6204 
  21   0.0000      -0.022801        -0.6204 
  22   0.0000       0.000519         0.0141 
  23   0.0000       0.006502         0.1769 
  24   0.0000       0.026610         0.7241 
  25   0.0000       0.026610         0.7241 
  26   0.0000       0.036091         0.9821 
  27   0.0000       0.036094         0.9822 
  28   0.0000       0.040737         1.1085 
  29   0.0000       0.040737         1.1085 
  30   0.0000       0.043594         1.1863 
  31   0.0000       0.064976         1.7681 
  32   0.0000       0.086961         2.3663 
  33   0.0000       0.130817         3.5597 
  34   0.0000       0.130817         3.5597 
  35   0.0000       0.164289         4.4705 
  36   0.0000       0.164291         4.4706 
  37   0.0000       0.169440         4.6107 
  38   0.0000       0.181109         4.9282 
  39   0.0000       0.181110         4.9282 
  40   0.0000       0.188396         5.1265 
  41   0.0000       0.190157         5.1744 
  42   0.0000       0.190157         5.1744 
  43   0.0000       0.241109         6.5609 
  44   0.0000       0.362080         9.8527 
  45   0.0000       0.362080         9.8527 
  46   0.0000       0.367862        10.0100 
  47   0.0000       0.367862        10.0100 
  48   0.0000       0.382229        10.4010 
  49   0.0000       0.464208        12.6317 
  50   0.0000       0.465015        12.6537 
  51   0.0000       0.465015        12.6537 
  52   0.0000       0.542760        14.7693 
  53   0.0000       0.553093        15.0504 
  54   0.0000       0.553093        15.0504 
  55   0.0000       0.627833        17.0842 
  56   0.0000       0.627833        17.0842 
  57   0.0000       0.692268        18.8376 
  58   0.0000       0.693446        18.8696 
  59   0.0000       0.693446        18.8696 
  60   0.0000       0.727757        19.8033 
  61   0.0000       0.727761        19.8034 
  62   0.0000       0.742877        20.2147 
  63   0.0000       0.742877        20.2147 
  64   0.0000       0.811985        22.0952 
  65   0.0000       1.098272        29.8855 
  66   0.0000       1.126040        30.6411 
  67   0.0000       1.126040        30.6411 
  68   0.0000       1.289379        35.0858 
  69   0.0000       1.289380        35.0858 
  70   0.0000       1.311581        35.6899 
  71   0.0000       1.311581        35.6899 
  72   0.0000       1.331702        36.2375 
  73   0.0000       1.446171        39.3523 
  74   0.0000       1.446171        39.3523 
  75   0.0000       1.527815        41.5740 
  76   0.0000       1.527815        41.5740 
  77   0.0000       1.548972        42.1497 
  78   0.0000       1.581046        43.0224 
  79   0.0000       1.581059        43.0228 
  80   0.0000       1.682113        45.7726 
  81   0.0000       1.682121        45.7728 
  82   0.0000       1.750185        47.6250 
  83   0.0000       1.750185        47.6250 
  84   0.0000       1.884326        51.2751 
  85   0.0000       1.938496        52.7492 
  86   0.0000       2.018370        54.9226 
  87   0.0000       2.018370        54.9226 
  88   0.0000       2.038888        55.4810 
  89   0.0000       2.038912        55.4816 
  90   0.0000       2.128253        57.9127 
  91   0.0000       2.128253        57.9127 
  92   0.0000       2.323807        63.2340 
  93   0.0000       2.328408        63.3592 
  94   0.0000       2.328408        63.3592 
  95   0.0000       2.442417        66.4615 
  96   0.0000       2.478946        67.4556 
  97   0.0000       2.478966        67.4561 
  98   0.0000       2.547983        69.3341 
  99   0.0000       2.547983        69.3341 
 100   0.0000       2.626857        71.4804 
 101   0.0000       2.710118        73.7461 
 102   0.0000       2.710119        73.7461 
 103   0.0000       2.916415        79.3597 
 104   0.0000       3.266632        88.8896 
 105   0.0000       3.266632        88.8896 
 106   0.0000       3.586307        97.5884 
 107   0.0000       4.037500       109.8660 
 108   0.0000       4.037500       109.8660 
 109   0.0000       4.763137       129.6116 
 110   0.0000       4.763137       129.6116 
 111   0.0000       4.796733       130.5257 
 112   0.0000       4.818934       131.1299 
 113   0.0000       4.818937       131.1300 
 114   0.0000       5.055604       137.5700 
 115   0.0000       5.055604       137.5700 
 116   0.0000       5.115788       139.2077 
 117   0.0000       5.115830       139.2088 
 118   0.0000       5.129411       139.5784 
 119   0.0000       5.129411       139.5784 
 120   0.0000       5.164929       140.5449 
 121   0.0000       5.164940       140.5452 
 122   0.0000       5.183169       141.0412 
 123   0.0000       5.183169       141.0412 
 124   0.0000       5.262393       143.1970 
 125   0.0000       5.371686       146.1710 
 126   0.0000       6.125565       166.6851 
 127   0.0000       6.125565       166.6851 
 128   0.0000       6.275245       170.7581 
 129   0.0000       6.275273       170.7589 
 130   0.0000       6.516476       177.3223 
 131   0.0000       6.516476       177.3223 
 132   0.0000       6.588399       179.2795 
 133   0.0000       6.588795       179.2902 
 134   0.0000       6.808104       185.2579 
 135   0.0000       6.998617       190.4420 
 136   0.0000       6.998617       190.4420 
 137   0.0000       7.248166       197.2326 
 138   0.0000      11.685715       317.9845 

                 SPIN DOWN ORBITALS
  NO   OCC          E(Eh)            E(eV) 
   0   1.0000    -196.117768     -5336.6358 
   1   1.0000     -21.868084      -595.0608 
   2   1.0000     -18.884167      -513.8643 
   3   1.0000     -18.407005      -500.8801 
   4   1.0000     -18.380734      -500.1652 
   5   1.0000     -18.380734      -500.1652 
   6   1.0000      -2.449335       -66.6498 
   7   1.0000      -1.560821       -42.4721 
   8   1.0000      -1.481403       -40.3110 
   9   1.0000      -1.481403       -40.3110 
  10   1.0000      -0.823095       -22.3976 
  11   1.0000      -0.297464        -8.0944 
  12   1.0000      -0.293488        -7.9862 
  13   1.0000      -0.293488        -7.9862 
  14   0.0000      -0.103262        -2.8099 
  15   0.0000      -0.065489        -1.7821 
  16   0.0000      -0.065489        -1.7821 
  17   0.0000      -0.056907        -1.5485 
  18   0.0000      -0.056864        -1.5474 
  19   0.0000      -0.043437        -1.1820 
  20   0.0000       0.011456         0.3117 
  21   0.0000       0.011457         0.3118 
  22   0.0000       0.016181         0.4403 
  23   0.0000       0.019844         0.5400 
  24   0.0000       0.047747         1.2992 
  25   0.0000       0.047747         1.2993 
  26   0.0000       0.057325         1.5599 
  27   0.0000       0.057327         1.5600 
  28   0.0000       0.060323         1.6415 
  29   0.0000       0.061655         1.6777 
  30   0.0000       0.061662         1.6779 
  31   0.0000       0.075312         2.0493 
  32   0.0000       0.117262         3.1909 
  33   0.0000       0.167930         4.5696 
  34   0.0000       0.167930         4.5696 
  35   0.0000       0.190205         5.1757 
  36   0.0000       0.190206         5.1758 
  37   0.0000       0.194409         5.2901 
  38   0.0000       0.202139         5.5005 
  39   0.0000       0.206568         5.6210 
  40   0.0000       0.206850         5.6287 
  41   0.0000       0.213058         5.7976 
  42   0.0000       0.213058         5.7976 
  43   0.0000       0.256182         6.9711 
  44   0.0000       0.389087        10.5876 
  45   0.0000       0.389212        10.5910 
  46   0.0000       0.415131        11.2963 
  47   0.0000       0.415131        11.2963 
  48   0.0000       0.424153        11.5418 
  49   0.0000       0.486648        13.2424 
  50   0.0000       0.488642        13.2966 
  51   0.0000       0.488642        13.2966 
  52   0.0000       0.574684        15.6379 
  53   0.0000       0.601535        16.3686 
  54   0.0000       0.601535        16.3686 
  55   0.0000       0.663150        18.0452 
  56   0.0000       0.663196        18.0465 
  57   0.0000       0.696750        18.9595 
  58   0.0000       0.717059        19.5122 
  59   0.0000       0.717059        19.5122 
  60   0.0000       0.757844        20.6220 
  61   0.0000       0.757844        20.6220 
  62   0.0000       0.764639        20.8069 
  63   0.0000       0.764641        20.8069 
  64   0.0000       0.827694        22.5227 
  65   0.0000       1.118324        30.4312 
  66   0.0000       1.141649        31.0658 
  67   0.0000       1.141649        31.0658 
  68   0.0000       1.333200        36.2782 
  69   0.0000       1.333203        36.2783 
  70   0.0000       1.352398        36.8006 
  71   0.0000       1.394795        37.9543 
  72   0.0000       1.394795        37.9543 
  73   0.0000       1.467362        39.9289 
  74   0.0000       1.467362        39.9289 
  75   0.0000       1.560821        42.4721 
  76   0.0000       1.560821        42.4721 
  77   0.0000       1.573123        42.8069 
  78   0.0000       1.638976        44.5988 
  79   0.0000       1.639001        44.5995 
  80   0.0000       1.700704        46.2785 
  81   0.0000       1.700712        46.2787 
  82   0.0000       1.766416        48.0666 
  83   0.0000       1.766416        48.0666 
  84   0.0000       1.887480        51.3609 
  85   0.0000       1.975931        53.7678 
  86   0.0000       2.027356        55.1672 
  87   0.0000       2.027356        55.1672 
  88   0.0000       2.033201        55.3262 
  89   0.0000       2.033216        55.3266 
  90   0.0000       2.195372        59.7391 
  91   0.0000       2.195372        59.7391 
  92   0.0000       2.341117        63.7050 
  93   0.0000       2.341117        63.7050 
  94   0.0000       2.355882        64.1068 
  95   0.0000       2.455646        66.8215 
  96   0.0000       2.494461        67.8777 
  97   0.0000       2.494479        67.8782 
  98   0.0000       2.581727        70.2524 
  99   0.0000       2.581727        70.2524 
 100   0.0000       2.638585        71.7996 
 101   0.0000       2.798721        76.1571 
 102   0.0000       2.798760        76.1581 
 103   0.0000       2.971429        80.8567 
 104   0.0000       3.291732        89.5726 
 105   0.0000       3.291732        89.5726 
 106   0.0000       3.607450        98.1637 
 107   0.0000       4.031474       109.7020 
 108   0.0000       4.031474       109.7020 
 109   0.0000       4.819703       131.1508 
 110   0.0000       4.882263       132.8531 
 111   0.0000       4.882263       132.8531 
 112   0.0000       4.895664       133.2178 
 113   0.0000       4.895673       133.2180 
 114   0.0000       5.124555       139.4462 
 115   0.0000       5.124555       139.4462 
 116   0.0000       5.189235       141.2063 
 117   0.0000       5.189235       141.2063 
 118   0.0000       5.201095       141.5290 
 119   0.0000       5.201136       141.5301 
 120   0.0000       5.211938       141.8240 
 121   0.0000       5.211947       141.8243 
 122   0.0000       5.220967       142.0697 
 123   0.0000       5.220967       142.0697 
 124   0.0000       5.323810       144.8682 
 125   0.0000       5.387382       146.5981 
 126   0.0000       6.110481       166.2746 
 127   0.0000       6.110481       166.2746 
 128   0.0000       6.264880       170.4761 
 129   0.0000       6.264924       170.4772 
 130   0.0000       6.513599       177.2440 
 131   0.0000       6.513599       177.2440 
 132   0.0000       6.566514       178.6839 
 133   0.0000       6.566927       178.6952 
 134   0.0000       6.805519       185.1876 
 135   0.0000       6.982721       190.0095 
 136   0.0000       6.982721       190.0095 
 137   0.0000       7.243915       197.1169 
 138   0.0000      11.678075       317.7766 

                    ********************************
                    * MULLIKEN POPULATION ANALYSIS *
                    ********************************

--------------------------------------------
MULLIKEN ATOMIC CHARGES AND SPIN POPULATIONS
--------------------------------------------
   0 V :    0.490242    3.275151
   1 O :   -0.490242   -0.275151
Sum of atomic charges         :   -0.0000000
Sum of atomic spin populations:    3.0000000

-----------------------------------------------------
MULLIKEN REDUCED ORBITAL CHARGES AND SPIN POPULATIONS
-----------------------------------------------------
CHARGE
  0 V s       :     6.806309  s :     6.806309
      pz      :     4.050878  p :    12.090603
      px      :     4.019862
      py      :     4.019862
      dz2     :     0.733461  d :     3.583885
      dxz     :     0.427733
      dyz     :     0.427733
      dx2y2   :     0.997478
      dxy     :     0.997479
      f0      :     0.005713  f :     0.019794
      f+1     :     0.006773
      f-1     :     0.006773
      f+2     :     0.000267
      f-2     :     0.000267
      f+3     :     0.000000
      f-3     :     0.000000
      g0      :     0.001609  g :     0.009167
      g+1     :     0.003785
      g-1     :     0.003785
      g+2     :    -0.000006
      g-2     :    -0.000006
      g+3     :     0.000000
      g-3     :     0.000000
      g+4     :     0.000000
      g-4     :     0.000000
  1 O s       :     3.975639  s :     3.975639
      pz      :     1.421343  p :     4.489280
      px      :     1.533968
      py      :     1.533968
      dz2     :     0.003492  d :     0.020224
      dxz     :     0.006681
      dyz     :     0.006681
      dx2y2   :     0.001685
      dxy     :     0.001685
      f0      :     0.001555  f :     0.005099
      f+1     :     0.001196
      f-1     :     0.001196
      f+2     :     0.000576
      f-2     :     0.000576
      f+3     :     0.000000
      f-3     :     0.000000

SPIN
  0 V s       :     0.746863  s :     0.746863
      pz      :     0.048692  p :     0.053303
      px      :     0.002305
      py      :     0.002305
      dz2     :     0.270963  d :     2.479958
      dxz     :     0.107019
      dyz     :     0.107019
      dx2y2   :     0.997478
      dxy     :     0.997479
      f0      :    -0.000407  f :    -0.001901
      f+1     :    -0.001014
      f-1     :    -0.001014
      f+2     :     0.000267
      f-2     :     0.000267
      f+3     :    -0.000000
      f-3     :    -0.000000
      g0      :    -0.000360  g :    -0.003072
      g+1     :    -0.001350
      g-1     :    -0.001350
      g+2     :    -0.000006
      g-2     :    -0.000006
      g+3     :    -0.000000
      g-3     :    -0.000000
      g+4     :    -0.000000
      g-4     :    -0.000000
  1 O s       :    -0.003867  s :    -0.003867
      pz      :    -0.064953  p :    -0.283554
      px      :    -0.109300
      py      :    -0.109300
      dz2     :     0.002325  d :     0.009572
      dxz     :     0.001939
      dyz     :     0.001939
      dx2y2   :     0.001685
      dxy     :     0.001685
      f0      :     0.000745  f :     0.002698
      f+1     :     0.000401
      f-1     :     0.000401
      f+2     :     0.000576
      f-2     :     0.000576
      f+3     :    -0.000000
      f-3     :    -0.000000


                     *******************************
                     * LOEWDIN POPULATION ANALYSIS *
                     *******************************

-------------------------------------------
LOEWDIN ATOMIC CHARGES AND SPIN POPULATIONS
-------------------------------------------
   0 V :    0.560537    3.038564
   1 O :   -0.560537   -0.038564

----------------------------------------------------
LOEWDIN REDUCED ORBITAL CHARGES AND SPIN POPULATIONS
----------------------------------------------------
CHARGE
  0 V s       :     6.369045  s :     6.369045
      pz      :     4.117371  p :    11.949201
      px      :     3.915915
      py      :     3.915915
      dz2     :     0.883209  d :     3.758594
      dxz     :     0.467170
      dyz     :     0.467170
      dx2y2   :     0.970522
      dxy     :     0.970523
      f0      :     0.125321  f :     0.254323
      f+1     :     0.062450
      f-1     :     0.062450
      f+2     :     0.002051
      f-2     :     0.002051
      f+3     :     0.000000
      f-3     :     0.000000
      g0      :     0.039603  g :     0.108300
      g+1     :     0.033754
      g-1     :     0.033754
      g+2     :     0.000595
      g-2     :     0.000595
      g+3     :     0.000000
      g-3     :     0.000000
      g+4     :     0.000000
      g-4     :     0.000000
  1 O s       :     3.537418  s :     3.537418
      pz      :     1.635996  p :     4.461885
      px      :     1.412944
      py      :     1.412944
      dz2     :     0.204096  d :     0.377764
      dxz     :     0.070283
      dyz     :     0.070283
      dx2y2   :     0.016551
      dxy     :     0.016551
      f0      :     0.087940  f :     0.183470
      f+1     :     0.037484
      f-1     :     0.037484
      f+2     :     0.010281
      f-2     :     0.010281
      f+3     :     0.000000
      f-3     :     0.000000

SPIN
  0 V s       :     0.639056  s :     0.639056
      pz      :     0.059286  p :     0.055530
      px      :    -0.001878
      py      :    -0.001878
      dz2     :     0.253414  d :     2.368171
      dxz     :     0.086856
      dyz     :     0.086856
      dx2y2   :     0.970522
      dxy     :     0.970523
      f0      :    -0.002167  f :    -0.014994
      f+1     :    -0.008465
      f-1     :    -0.008465
      f+2     :     0.002051
      f-2     :     0.002051
      f+3     :    -0.000000
      f-3     :    -0.000000
      g0      :    -0.000851  g :    -0.009198
      g+1     :    -0.004769
      g-1     :    -0.004769
      g+2     :     0.000595
      g-2     :     0.000595
      g+3     :    -0.000000
      g-3     :    -0.000000
      g+4     :    -0.000000
      g-4     :    -0.000000
  1 O s       :     0.037906  s :     0.037906
      pz      :     0.008289  p :    -0.145163
      px      :    -0.076726
      py      :    -0.076726
      dz2     :     0.001796  d :     0.042378
      dxz     :     0.003740
      dyz     :     0.003740
      dx2y2   :     0.016551
      dxy     :     0.016551
      f0      :     0.003270  f :     0.026314
      f+1     :     0.001241
      f-1     :     0.001241
      f+2     :     0.010281
      f-2     :     0.010281
      f+3     :    -0.000000
      f-3     :    -0.000000


                      *****************************
                      * MAYER POPULATION ANALYSIS *
                      *****************************

  NA   - Mulliken gross atomic population
  ZA   - Total nuclear charge
  QA   - Mulliken gross atomic charge
  VA   - Mayer's total valence
  BVA  - Mayer's bonded valence
  FA   - Mayer's free valence

  ATOM       NA         ZA         QA         VA         BVA        FA
  0 V     22.5098    23.0000     0.4902     5.2622     2.3043     2.9580
  1 O      8.4902     8.0000    -0.4902     2.3376     2.3043     0.0333

  Mayer bond orders larger than 0.100000
B(  0-V ,  1-O ) :   2.3043 

-------
TIMINGS
-------

Total SCF time: 0 days 0 hours 0 min 4 sec 

Total time                  ....       4.365 sec
Sum of individual times     ....       4.198 sec  ( 96.2%)

Fock matrix formation       ....       3.752 sec  ( 86.0%)
  Split-RI-J                ....       2.869 sec  ( 76.5% of F)
  XC integration            ....       0.720 sec  ( 19.2% of F)
    Basis function eval.    ....       0.094 sec  ( 13.1% of XC)
    Density eval.           ....       0.114 sec  ( 15.9% of XC)
    XC-Functional eval.     ....       0.026 sec  (  3.5% of XC)
    XC-Potential eval.      ....       0.316 sec  ( 43.8% of XC)
Diagonalization             ....       0.093 sec  (  2.1%)
Density matrix formation    ....       0.012 sec  (  0.3%)
Population analysis         ....       0.007 sec  (  0.2%)
Initial guess               ....       0.116 sec  (  2.7%)
Orbital Transformation      ....       0.000 sec  (  0.0%)
Orbital Orthonormalization  ....       0.000 sec  (  0.0%)
DIIS solution               ....       0.035 sec  (  0.8%)
Grid generation             ....       0.184 sec  (  4.2%)


-------------------------------------------------------------------------------
                          DFT DISPERSION CORRECTION                            
                                                                               
                              DFTD3 V3.1  Rev 1                                
                          USING Becke-Johnson damping                          
-------------------------------------------------------------------------------
The TPSS functional is recognized
Active option DFTDOPT                   ...         4   

molecular C6(AA) [au] = 648.820019 


            DFT-D V3
 parameters
 s6 scaling factor         :     1.0000 
 a1 scaling factor         :     0.4535 
 s8 scaling factor         :     1.9435 
 a2 scaling factor         :     4.4752 
 ad hoc parameters k1-k3   :    16.0000     1.3333    -4.0000 

 Edisp/kcal,au: -0.565530833436  -0.000901230653 
 E6   /kcal   :  -0.217602627 
 E8   /kcal   :  -0.347928206 
 % E8         :  61.522411402 

-------------------------   ----------------
Dispersion correction           -0.000901231
-------------------------   ----------------


-------------------------   --------------------
FINAL SINGLE POINT ENERGY     -1019.309729911187
-------------------------   --------------------


                            ***************************************
                            *     ORCA property calculations      *
                            ***************************************

                                    ---------------------
                                    Active property flags
                                    ---------------------
   (+) Dipole Moment


------------------------------------------------------------------------------
                       ORCA ELECTRIC PROPERTIES CALCULATION
------------------------------------------------------------------------------

Dipole Moment Calculation                       ... on
Quadrupole Moment Calculation                   ... off
Polarizability Calculation                      ... off
GBWName                                         ... 17_VO.gbw
Electron density file                           ... 17_VO.scfp
The origin for moment calculation is the CENTER OF MASS  = ( 0.000000,  0.000000  1.104702)

-------------
DIPOLE MOMENT
-------------
                                X             Y             Z
Electronic contribution:     -0.00000      -0.00000      -3.15137
Nuclear contribution   :      0.00000       0.00000       1.77684
                        -----------------------------------------
Total Dipole Moment    :     -0.00000      -0.00000      -1.37453
                        -----------------------------------------
Magnitude (a.u.)       :      1.37453
Magnitude (Debye)      :      3.49378



--------------------
Rotational spectrum 
--------------------
 
Rotational constants in cm-1:     0.000000     0.546523     0.546523 
Rotational constants in MHz :     0.000000 16384.348098 16384.348098 

 Dipole components along the rotational axes: 
x,y,z [a.u.] :    -1.374532    -0.000000    -0.000000 
x,y,z [Debye]:    -3.493782    -0.000000    -0.000000 

 

Timings for individual modules:

Sum of individual times         ...        7.905 sec (=   0.132 min)
GTO integral calculation        ...        3.218 sec (=   0.054 min)  40.7 %
SCF iterations                  ...        4.687 sec (=   0.078 min)  59.3 %
                             ****ORCA TERMINATED NORMALLY****
TOTAL RUN TIME: 0 days 0 hours 0 minutes 8 seconds 588 msec
