
                                 *****************
                                 * O   R   C   A *
                                 *****************

           --- An Ab Initio, DFT and Semiempirical electronic structure package ---

                  #######################################################
                  #                        -***-                        #
                  #          Department of theory and spectroscopy      #
                  #               Directorship: Frank Neese             #
                  #        Max Planck Institute fuer Kohlenforschung    #
                  #                Kaiser Wilhelm Platz 1               #
                  #                 D-45470 Muelheim/Ruhr               #
                  #                      Germany                        #
                  #                                                     #
                  #                  All rights reserved                #
                  #                        -***-                        #
                  #######################################################


                         Program Version 4.2.0 -  RELEASE  -


 With contributions from (in alphabetic order):
   Daniel Aravena         : Magnetic Suceptibility
   Michael Atanasov       : Ab Initio Ligand Field Theory (pilot matlab implementation)
   Alexander A. Auer      : GIAO ZORA, VPT2
   Ute Becker             : Parallelization
   Giovanni Bistoni       : ED, misc. LED, open-shell LED, HFLED
   Martin Brehm           : Molecular dynamics
   Dmytro Bykov           : SCF Hessian
   Vijay G. Chilkuri      : MRCI spin determinant printing, contributions to CSF-ICE
   Dipayan Datta          : RHF DLPNO-CCSD density
   Achintya Kumar Dutta   : EOM-CC, STEOM-CC
   Dmitry Ganyushin       : Spin-Orbit,Spin-Spin,Magnetic field MRCI
   Miquel Garcia          : C-PCM Hessian, Gaussian charge scheme
   Yang Guo               : DLPNO-NEVPT2, CIM, IAO-localization
   Andreas Hansen         : Spin unrestricted coupled pair/coupled cluster methods
   Benjamin Helmich-Paris : CASSCF linear response (MC-RPA)
   Lee Huntington         : MR-EOM, pCC
   Robert Izsak           : Overlap fitted RIJCOSX, COSX-SCS-MP3, EOM
   Christian Kollmar      : KDIIS, OOCD, Brueckner-CCSD(T), CCSD density
   Simone Kossmann        : Meta GGA functionals, TD-DFT gradient, OOMP2, MP2 Hessian
   Martin Krupicka        : AUTO-CI
   Lucas Lang             : DCDCAS
   Dagmar Lenk            : GEPOL surface, SMD
   Dimitrios Liakos       : Extrapolation schemes; Compound Job, initial MDCI parallelization
   Dimitrios Manganas     : Further ROCIS development; embedding schemes
   Dimitrios Pantazis     : SARC Basis sets
   Taras Petrenko         : DFT Hessian,TD-DFT gradient, ASA, ECA, R-Raman, ABS, FL, XAS/XES, NRVS
   Peter Pinski           : DLPNO-MP2, DLPNO-MP2 Gradient
   Christoph Reimann      : Effective Core Potentials
   Marius Retegan         : Local ZFS, SOC
   Christoph Riplinger    : Optimizer, TS searches, QM/MM, DLPNO-CCSD(T), (RO)-DLPNO pert. Triples
   Tobias Risthaus        : Range-separated hybrids, TD-DFT gradient, RPA, STAB
   Michael Roemelt        : Original ROCIS implementation
   Masaaki Saitow         : Open-shell DLPNO-CCSD energy and density
   Barbara Sandhoefer     : DKH picture change effects
   Avijit Sen             : IP-ROCIS
   Kantharuban Sivalingam : CASSCF convergence, NEVPT2, FIC-MRCI
   Bernardo de Souza      : ESD, SOC TD-DFT
   Georgi Stoychev        : AutoAux, RI-MP2 NMR
   Willem Van den Heuvel  : Paramagnetic NMR
   Boris Wezisla          : Elementary symmetry handling
   Frank Wennmohs         : Technical directorship


 We gratefully acknowledge several colleagues who have allowed us to
 interface, adapt or use parts of their codes:
   Stefan Grimme, W. Hujo, H. Kruse,             : VdW corrections, initial TS optimization,
                  C. Bannwarth                     DFT functionals, gCP, sTDA/sTD-DF
   Ed Valeev, F. Pavosevic, A. Kumar             : LibInt (2-el integral package), F12 methods
   Garnet Chan, S. Sharma, J. Yang, R. Olivares  : DMRG
   Ulf Ekstrom                                   : XCFun DFT Library
   Mihaly Kallay                                 : mrcc  (arbitrary order and MRCC methods)
   Andreas Klamt, Michael Diedenhofen            : otool_cosmo (COSMO solvation model)
   Jiri Pittner, Ondrej Demel                    : Mk-CCSD
   Frank Weinhold                                : gennbo (NPA and NBO analysis)
   Christopher J. Cramer and Donald G. Truhlar   : smd solvation model
   Lars Goerigk                                  : TD-DFT with DH, B97 family of functionals
   V. Asgeirsson, H. Jonsson                     : NEB implementation
   FAccTs GmbH                                   : IRC, NEB, NEB-TS, Multilevel, MM, QM/MM, CI optimization
   S Lehtola, MJT Oliveira, MAL Marques          : LibXC Library


 Your calculation uses the libint2 library for the computation of 2-el integrals
 For citations please refer to: http://libint.valeyev.net

 Your ORCA version has been built with support for libXC version: 4.2.3
 For citations please refer to: https://tddft.org/programs/libxc/

 This ORCA versions uses:
   CBLAS   interface :  Fast vector & matrix operations
   LAPACKE interface :  Fast linear algebra routines
   SCALAPACK package :  Parallel linear algebra routines


Your calculation utilizes the atom-pairwise dispersion correction
with the Becke-Johnson damping scheme (D3BJ)
Cite in your paper:
S.Grimme, S.Ehrlich, L.Goerigk, J Comput Chem, (2011), 32, 1456–1465 
S.Grimme, J.Antony, S.Ehrlich and H.Krieg, J.Chem.Phys., 132, (2010), 154104 
   

----- Orbital basis set information -----
Your calculation utilizes the basis: aug-cc-pVTZ 
    H, B-Ne : Obtained from the ccRepo (grant-hill.group.shef.ac.uk/ccrepo) Feb. 2017
              R. A. Kendall, T. H. Dunning, Jr., R. J. Harrison, J. Chem. Phys. 96, 6796 (1992)
         He : Obtained from the ccRepo (grant-hill.group.shef.ac.uk/ccrepo) Feb. 2017
              D. E. Woon, T. H. Dunning, Jr., J. Chem. Phys. 100, 2975 (1994)
  Li-Be, Na : Obtained from the ccRepo (grant-hill.group.shef.ac.uk/ccrepo) Feb. 2017
              B. P. Prascher, D. E. Woon, K. A. Peterson, T. H. Dunning, Jr., A. K. Wilson, Theor. Chem. Acc. 128, 69 (2011)
         Mg : Obtained from the Peterson Research Group Website (tyr0.chem.wsu.edu/~kipeters) Feb. 2017
              B. P. Prascher, D. E. Woon, K. A. Peterson, T. H. Dunning, Jr., A. K. Wilson, Theor. Chem. Acc. 128, 69 (2011)
      Al-Ar : Obtained from the ccRepo (grant-hill.group.shef.ac.uk/ccrepo) Feb. 2017
              D. E. Woon, T. H. Dunning, Jr., J. Chem. Phys. 98, 1358 (1993)
      Sc-Zn : Obtained from the ccRepo (grant-hill.group.shef.ac.uk/ccrepo) Feb. 2017
              N. B. Balabanov, K. A. Peterson, J. Chem. Phys. 123, 064107 (2005)
              N. B. Balabanov, K. A. Peterson, J. Chem. Phys. 125, 074110 (2006)
      Ga-Kr : Obtained from the ccRepo (grant-hill.group.shef.ac.uk/ccrepo) Feb. 2017
              A. K. Wilson, D. E. Woon, K. A. Peterson, T. H. Dunning, Jr., J. Chem. Phys. 110, 7667 (1999)
     Ag, Au : Obtained from the Peterson Research Group Website (tyr0.chem.wsu.edu/~kipeters) Feb. 2017
              K. A. Peterson, C. Puzzarini, Theor. Chem. Acc. 114, 283 (2005)

----- AuxJ basis set information -----
Your calculation utilizes the auxiliary basis: def2/J
   F. Weigend, Phys. Chem. Chem. Phys. 8, 1057 (2006).

================================================================================
                                        WARNINGS
                       Please study these warnings very carefully!
================================================================================


WARNING: your system is open-shell and RHF/RKS was chosen
  ===> : WILL SWITCH to UHF/UKS


INFO   : the flag for use of LIBINT has been found!

================================================================================
                                       INPUT FILE
================================================================================
NAME = 18_VS.in
|  1> #
|  2> # 18_VS tpss/aug-cc-pvtz
|  3> #
|  4> ! tpss d3bj aug-cc-pvtz def2/j grid4 nofinalgrid
|  5> 
|  6> *xyz 0 4
|  7>   V   0.00000000000000      0.00000000000000     -0.02784157502378
|  8>   S   0.00000000000000      0.00000000000000      2.02784157502377
|  9> *
| 10> 
| 11> %pal
| 12> nprocs 24
| 13> end
| 14> 
| 15> 
| 16>                          ****END OF INPUT****
================================================================================

                       ****************************
                       * Single Point Calculation *
                       ****************************

---------------------------------
CARTESIAN COORDINATES (ANGSTROEM)
---------------------------------
  V      0.000000    0.000000   -0.027842
  S      0.000000    0.000000    2.027842

----------------------------
CARTESIAN COORDINATES (A.U.)
----------------------------
  NO LB      ZA    FRAG     MASS         X           Y           Z
   0 V    23.0000    0    50.940    0.000000    0.000000   -0.052613
   1 S    16.0000    0    32.060    0.000000    0.000000    3.832065

--------------------------------
INTERNAL COORDINATES (ANGSTROEM)
--------------------------------
 V      0   0   0     0.000000000000     0.00000000     0.00000000
 S      1   0   0     2.055683150048     0.00000000     0.00000000

---------------------------
INTERNAL COORDINATES (A.U.)
---------------------------
 V      0   0   0     0.000000000000     0.00000000     0.00000000
 S      1   0   0     3.884678171706     0.00000000     0.00000000

---------------------
BASIS SET INFORMATION
---------------------
There are 2 groups of distinct atoms

 Group   1 Type V   : 116s77p23d3f2g contracted to 8s7p5d3f2g pattern {19191919191911/151515151511/77711/111/11}
 Group   2 Type S   : 42s17p3d2f contracted to 6s5p3d2f pattern {131313111/77111/111/11}

Atom   0V    basis set group =>   1
Atom   1S    basis set group =>   2
---------------------------------
AUXILIARY/J BASIS SET INFORMATION
---------------------------------
There are 2 groups of distinct atoms

 Group   1 Type V   : 19s5p5d3f3g contracted to 8s5p5d2f3g pattern {121111111/11111/11111/21/111}
 Group   2 Type S   : 14s5p5d2f1g contracted to 8s4p3d1f1g pattern {71111111/2111/311/2/1}

Atom   0V    basis set group =>   1
Atom   1S    basis set group =>   2


           ************************************************************
           *        Program running with 24 parallel MPI-processes    *
           *              working on a common directory               *
           ************************************************************
------------------------------------------------------------------------------
                           ORCA GTO INTEGRAL CALCULATION
                           -- RI-GTO INTEGRALS CHOSEN --
------------------------------------------------------------------------------

                         BASIS SET STATISTICS AND STARTUP INFO

Gaussian basis set:
 # of primitive gaussian shells          ...  285
 # of primitive gaussian functions       ...  623
 # of contracted shells                  ...   41
 # of contracted basis functions         ...  143
 Highest angular momentum                ...    4
 Maximum contraction depth               ...   19
Auxiliary gaussian basis set:
 # of primitive gaussian shells          ...   62
 # of primitive gaussian functions       ...  184
 # of contracted shells                  ...   40
 # of contracted aux-basis functions     ...  140
 Highest angular momentum                ...    4
 Maximum contraction depth               ...   12
Ratio of auxiliary to basis functions    ...  0.98
Integral package used                  ... LIBINT
 One Electron integrals                  ... done
 Ordering auxiliary basis shells         ... done
 Integral threshhold             Thresh  ...  1.000e-10
 Primitive cut-off               TCut    ...  1.000e-11
 Pre-screening matrix                    ... done
 Shell pair data                         ... 
 Ordering of the shell pairs             ... done (   0.000 sec) 861 of 861 pairs
 Determination of significant pairs      ... done (   0.000 sec)
 Creation of shell pair data             ... done (   0.001 sec)
 Storage of shell pair data              ... done (   0.020 sec)
 Shell pair data done in (   0.022 sec)
 Computing two index integrals           ... done
 Cholesky decomposition of the V-matrix  ... done


Timings:
 Total evaluation time                   ...   3.105 sec (  0.052 min)
 One electron matrix time                ...   0.045 sec (  0.001 min) =  1.5%
 Schwartz matrix evaluation time         ...   2.996 sec (  0.050 min) = 96.5%
 Two index repulsion integral time       ...   0.001 sec (  0.000 min) =  0.0%
 Cholesky decomposition of V             ...   0.005 sec (  0.000 min) =  0.2%
 Three index repulsion integral time     ...   0.000 sec (  0.000 min) =  0.0%



           ************************************************************
           *        Program running with 24 parallel MPI-processes    *
           *              working on a common directory               *
           ************************************************************
-------------------------------------------------------------------------------
                                 ORCA SCF
-------------------------------------------------------------------------------

------------
SCF SETTINGS
------------
Hamiltonian:
 Density Functional     Method          .... DFT(GTOs)
 Exchange Functional    Exchange        .... TPSS
 Correlation Functional Correlation     .... TPSS
 LDA part of GGA corr.  LDAOpt          .... PW91-LDA
 Gradients option       PostSCFGGA      .... off
   Density functional embedding theory  .... OFF
   NL short-range parameter             ....  5.000000
 RI-approximation to the Coulomb term is turned on
   Number of auxiliary basis functions  .... 140


General Settings:
 Integral files         IntName         .... 18_VS
 Hartree-Fock type      HFTyp           .... UHF
 Total Charge           Charge          ....    0
 Multiplicity           Mult            ....    4
 Number of Electrons    NEL             ....   39
 Basis Dimension        Dim             ....  143
 Nuclear Repulsion      ENuc            ....     94.7311421266 Eh

Convergence Acceleration:
 DIIS                   CNVDIIS         .... on
   Start iteration      DIISMaxIt       ....    12
   Startup error        DIISStart       ....  0.200000
   # of expansion vecs  DIISMaxEq       ....     5
   Bias factor          DIISBfac        ....   1.050
   Max. coefficient     DIISMaxC        ....  10.000
 Newton-Raphson         CNVNR           .... off
 SOSCF                  CNVSOSCF        .... off
 Level Shifting         CNVShift        .... on
   Level shift para.    LevelShift      ....    0.2500
   Turn off err/grad.   ShiftErr        ....    0.0010
 Zerner damping         CNVZerner       .... off
 Static damping         CNVDamp         .... on
   Fraction old density DampFac         ....    0.7000
   Max. Damping (<1)    DampMax         ....    0.9800
   Min. Damping (>=0)   DampMin         ....    0.0000
   Turn off err/grad.   DampErr         ....    0.1000
 Fernandez-Rico         CNVRico         .... off

SCF Procedure:
 Maximum # iterations   MaxIter         ....   125
 SCF integral mode      SCFMode         .... Direct
   Integral package                     .... LIBINT
 Reset frequency        DirectResetFreq ....    20
 Integral Threshold     Thresh          ....  1.000e-10 Eh
 Primitive CutOff       TCut            ....  1.000e-11 Eh

Convergence Tolerance:
 Convergence Check Mode ConvCheckMode   .... Total+1el-Energy
 Convergence forced     ConvForced      .... 0
 Energy Change          TolE            ....  1.000e-06 Eh
 1-El. energy change                    ....  1.000e-03 Eh
 DIIS Error             TolErr          ....  1.000e-06


Diagonalization of the overlap matrix:
Smallest eigenvalue                        ... 5.303e-05
Time for diagonalization                   ...    0.006 sec
Threshold for overlap eigenvalues          ... 1.000e-08
Number of eigenvalues below threshold      ... 0
Time for construction of square roots      ...    0.002 sec
Total time needed                          ...    0.008 sec

-------------------
DFT GRID GENERATION
-------------------

General Integration Accuracy     IntAcc      ...  4.670
Radial Grid Type                 RadialGrid  ... Gauss-Chebyshev
Angular Grid (max. acc.)         AngularGrid ... Lebedev-302
Angular grid pruning method      GridPruning ... 3 (G Style)
Weight generation scheme         WeightScheme... Becke
Basis function cutoff            BFCut       ...    1.0000e-10
Integration weight cutoff        WCut        ...    1.0000e-14
Grids for H and He will be reduced by one unit

# of grid points (after initial pruning)     ...  16510 (   0.0 sec)
# of grid points (after weights+screening)   ...  16481 (   0.0 sec)
nearest neighbour list constructed           ...    0.0 sec
Grid point re-assignment to atoms done       ...    0.0 sec
Grid point division into batches done        ...    0.1 sec
Reduced shell lists constructed in    0.1 sec

Total number of grid points                  ...    16481
Total number of batches                      ...      259
Average number of points per batch           ...       63
Average number of grid points per atom       ...     8240
Average number of shells per batch           ...    17.25 (42.07%)
Average number of basis functions per batch  ...    45.92 (32.11%)
Average number of large shells per batch     ...     9.92 (57.49%)
Average number of large basis fcns per batch ...    26.75 (58.26%)
Maximum spatial batch extension              ...  24.49, 24.19, 17.58 au
Average spatial batch extension              ...   0.84,  0.83,  0.64 au

Time for grid setup =    0.164 sec

------------------------------
INITIAL GUESS: MODEL POTENTIAL
------------------------------
Loading Hartree-Fock densities                     ... done
Calculating cut-offs                               ... done
Setting up the integral package                    ... done
Initializing the effective Hamiltonian             ... done
Starting the Coulomb interaction                   ... done (   0.0 sec)
Reading the grid                                   ... done
Mapping shells                                     ... done
Starting the XC term evaluation                    ... done (   0.0 sec)
  promolecular density results
     # of electrons  =     39.000005561
     EX              =    -68.835837529
     EC              =     -1.568818143
     EX+EC           =    -70.404655672
Transforming the Hamiltonian                       ... done (   0.0 sec)
Diagonalizing the Hamiltonian                      ... done (   0.0 sec)
Back transforming the eigenvectors                 ... done (   0.0 sec)
Now organizing SCF variables                       ... done
                      ------------------
                      INITIAL GUESS DONE (   0.3 sec)
                      ------------------
--------------
SCF ITERATIONS
--------------
ITER       Energy         Delta-E        Max-DP      RMS-DP      [F,P]     Damp
               ***  Starting incremental Fock matrix formation  ***
  0  -1342.1928326029   0.000000000000 0.05973303  0.00115061  0.1136634 0.7000
  1  -1342.2304863001  -0.037653697229 0.03991003  0.00094913  0.0508631 0.7000
                               ***Turning on DIIS***
  2  -1342.2441983775  -0.013712077349 0.06930457  0.00150968  0.0286250 0.0000
  3  -1342.2605251110  -0.016326733566 0.07297789  0.00151189  0.0614450 0.0000
  4  -1342.2708083954  -0.010283284371 0.01590843  0.00025311  0.0277050 0.0000
  5  -1342.2733399764  -0.002531580969 0.01243593  0.00026064  0.0070958 0.0000
  6  -1342.2738743113  -0.000534334984 0.00733777  0.00017632  0.0024087 0.0000
  7  -1342.2741216199  -0.000247308519 0.00601870  0.00009267  0.0021792 0.0000
  8  -1342.2742687997  -0.000147179806 0.00507563  0.00006409  0.0018402 0.0000
  9  -1342.2743686411  -0.000099841448 0.00404390  0.00005371  0.0012304 0.0000
 10  -1342.2744343763  -0.000065735207 0.01160573  0.00011170  0.0003761 0.0000
 11  -1342.2744946080  -0.000060231652 0.00064143  0.00001278  0.0036442 0.0000
 12  -1342.2745061775  -0.000011569512 0.00054103  0.00000883  0.0028245 0.0000
 13  -1342.2745128928  -0.000006715332 0.00023538  0.00000421  0.0022169 0.0000
 14  -1342.2745150811  -0.000002188304 0.00024864  0.00000597  0.0019874 0.0000
 15  -1342.2745127846   0.000002296517 0.00183353  0.00003171  0.0022269 0.0000
 16  -1342.2745240519  -0.000011267311 0.00153158  0.00003660  0.0003083 0.0000
 17  -1342.2745274447  -0.000003392786 0.00081304  0.00001619  0.0003327 0.0000
 18  -1342.2745278100  -0.000000365337 0.00044698  0.00000605  0.0003409 0.0000
 19  -1342.2745277679   0.000000042116 0.00012105  0.00000191  0.0002011 0.0000
               *** Restarting incremental Fock matrix formation ***
                                   *** Resetting DIIS ***
 20  -1342.2745292743  -0.000001506380 0.00037061  0.00000516  0.0000777 0.0000
 21  -1342.2745289797   0.000000294633 0.00034471  0.00000384  0.0005048 0.0000
 22  -1342.2745292649  -0.000000285233 0.00005548  0.00000112  0.0000884 0.0000
                 **** Energy Check signals convergence ****

               *****************************************************
               *                     SUCCESS                       *
               *           SCF CONVERGED AFTER  23 CYCLES          *
               *****************************************************


----------------
TOTAL SCF ENERGY
----------------

Total Energy       :        -1342.27452917 Eh          -36525.14684 eV

Components:
Nuclear Repulsion  :           94.73114213 Eh            2577.76543 eV
Electronic Energy  :        -1437.00567130 Eh          -39102.91227 eV
One Electron Energy:        -2036.17550751 Eh          -55407.15240 eV
Two Electron Energy:          599.16983621 Eh           16304.24013 eV

Virial components:
Potential Energy   :        -2681.85219734 Eh          -72976.90836 eV
Kinetic Energy     :         1339.57766817 Eh           36451.76152 eV
Virial Ratio       :            2.00201322


DFT components:
N(Alpha)           :       20.999999743591 electrons
N(Beta)            :       17.999998160848 electrons
N(Total)           :       38.999997904439 electrons
E(X)               :      -69.496207787031 Eh       
E(C)               :       -1.577090865098 Eh       
E(XC)              :      -71.073298652128 Eh       
DFET-embed. en.    :        0.000000000000 Eh       

---------------
SCF CONVERGENCE
---------------

  Last Energy change         ...    9.3020e-08  Tolerance :   1.0000e-06
  Last MAX-Density change    ...    4.3884e-05  Tolerance :   1.0000e-05
  Last RMS-Density change    ...    6.8596e-07  Tolerance :   1.0000e-06
  Last DIIS Error            ...    4.9741e-05  Tolerance :   1.0000e-06

             **** THE GBW FILE WAS UPDATED (18_VS.gbw) ****
             **** DENSITY FILE WAS UPDATED (18_VS.scfp) ****
             **** ENERGY FILE WAS UPDATED (18_VS.en.tmp) ****
----------------------
UHF SPIN CONTAMINATION
----------------------

Warning: in a DFT calculation there is little theoretical justification to 
         calculate <S**2> as in Hartree-Fock theory. We will do it anyways
         but you should keep in mind that the values have only limited relevance

Expectation value of <S**2>     :     3.875315
Ideal value S*(S+1) for S=1.5   :     3.750000
Deviation                       :     0.125315

             **** THE GBW FILE WAS UPDATED (18_VS.gbw) ****
             **** DENSITY FILE WAS UPDATED (18_VS.scfp) ****
----------------
ORBITAL ENERGIES
----------------
                 SPIN UP ORBITALS
  NO   OCC          E(Eh)            E(eV) 
   0   1.0000    -196.107349     -5336.3523 
   1   1.0000     -88.339523     -2403.8406 
   2   1.0000     -21.878352      -595.3402 
   3   1.0000     -18.400027      -500.6902 
   4   1.0000     -18.391711      -500.4639 
   5   1.0000     -18.391711      -500.4639 
   6   1.0000      -7.698210      -209.4789 
   7   1.0000      -5.675280      -154.4322 
   8   1.0000      -5.675280      -154.4322 
   9   1.0000      -5.674162      -154.4018 
  10   1.0000      -2.520017       -68.5731 
  11   1.0000      -1.588324       -43.2205 
  12   1.0000      -1.574157       -42.8350 
  13   1.0000      -1.574157       -42.8350 
  14   1.0000      -0.571604       -15.5541 
  15   1.0000      -0.252623        -6.8742 
  16   1.0000      -0.223788        -6.0896 
  17   1.0000      -0.223788        -6.0896 
  18   1.0000      -0.175485        -4.7752 
  19   1.0000      -0.159322        -4.3354 
  20   1.0000      -0.159321        -4.3354 
  21   0.0000      -0.123600        -3.3633 
  22   0.0000      -0.123600        -3.3633 
  23   0.0000      -0.102733        -2.7955 
  24   0.0000      -0.029033        -0.7900 
  25   0.0000      -0.029033        -0.7900 
  26   0.0000      -0.000323        -0.0088 
  27   0.0000       0.005177         0.1409 
  28   0.0000       0.022728         0.6185 
  29   0.0000       0.022728         0.6185 
  30   0.0000       0.035542         0.9671 
  31   0.0000       0.035543         0.9672 
  32   0.0000       0.039186         1.0663 
  33   0.0000       0.040734         1.1084 
  34   0.0000       0.040734         1.1084 
  35   0.0000       0.060368         1.6427 
  36   0.0000       0.082039         2.2324 
  37   0.0000       0.105750         2.8776 
  38   0.0000       0.105750         2.8776 
  39   0.0000       0.106975         2.9109 
  40   0.0000       0.133090         3.6216 
  41   0.0000       0.133090         3.6216 
  42   0.0000       0.159931         4.3519 
  43   0.0000       0.159931         4.3519 
  44   0.0000       0.161460         4.3935 
  45   0.0000       0.174887         4.7589 
  46   0.0000       0.174887         4.7589 
  47   0.0000       0.208351         5.6695 
  48   0.0000       0.214000         5.8232 
  49   0.0000       0.214002         5.8233 
  50   0.0000       0.275012         7.4835 
  51   0.0000       0.292322         7.9545 
  52   0.0000       0.292322         7.9545 
  53   0.0000       0.343220         9.3395 
  54   0.0000       0.366067         9.9612 
  55   0.0000       0.366067         9.9612 
  56   0.0000       0.400626        10.9016 
  57   0.0000       0.439625        11.9628 
  58   0.0000       0.439628        11.9629 
  59   0.0000       0.470872        12.8131 
  60   0.0000       0.470872        12.8131 
  61   0.0000       0.517729        14.0881 
  62   0.0000       0.529686        14.4135 
  63   0.0000       0.529686        14.4135 
  64   0.0000       0.558472        15.1968 
  65   0.0000       0.558472        15.1968 
  66   0.0000       0.580881        15.8066 
  67   0.0000       0.580886        15.8067 
  68   0.0000       0.591038        16.0830 
  69   0.0000       0.624128        16.9834 
  70   0.0000       0.624128        16.9834 
  71   0.0000       0.657040        17.8790 
  72   0.0000       0.657041        17.8790 
  73   0.0000       0.707299        19.2466 
  74   0.0000       0.746656        20.3176 
  75   0.0000       0.746656        20.3176 
  76   0.0000       0.818510        22.2728 
  77   0.0000       0.824571        22.4377 
  78   0.0000       0.824571        22.4377 
  79   0.0000       0.871902        23.7257 
  80   0.0000       0.900527        24.5046 
  81   0.0000       0.900529        24.5047 
  82   0.0000       1.125530        30.6272 
  83   0.0000       1.125530        30.6272 
  84   0.0000       1.127043        30.6684 
  85   0.0000       1.314167        35.7603 
  86   0.0000       1.314167        35.7603 
  87   0.0000       1.354051        36.8456 
  88   0.0000       1.354057        36.8458 
  89   0.0000       1.437130        39.1063 
  90   0.0000       1.483692        40.3733 
  91   0.0000       1.483692        40.3733 
  92   0.0000       1.580223        43.0000 
  93   0.0000       1.580301        43.0022 
  94   0.0000       1.623257        44.1711 
  95   0.0000       1.623257        44.1711 
  96   0.0000       1.707140        46.4536 
  97   0.0000       1.735609        47.2283 
  98   0.0000       1.735631        47.2289 
  99   0.0000       1.789568        48.6966 
 100   0.0000       1.789568        48.6966 
 101   0.0000       1.834779        49.9269 
 102   0.0000       1.834856        49.9290 
 103   0.0000       1.916867        52.1606 
 104   0.0000       1.970332        53.6155 
 105   0.0000       1.970332        53.6155 
 106   0.0000       2.032344        55.3029 
 107   0.0000       2.095194        57.0131 
 108   0.0000       2.095194        57.0131 
 109   0.0000       2.121292        57.7233 
 110   0.0000       2.121292        57.7233 
 111   0.0000       2.140386        58.2429 
 112   0.0000       2.189304        59.5740 
 113   0.0000       2.189304        59.5740 
 114   0.0000       2.227047        60.6010 
 115   0.0000       2.227057        60.6013 
 116   0.0000       2.423584        65.9491 
 117   0.0000       2.539779        69.1109 
 118   0.0000       2.636395        71.7399 
 119   0.0000       2.636395        71.7399 
 120   0.0000       2.719232        73.9941 
 121   0.0000       2.719233        73.9941 
 122   0.0000       3.000775        81.6552 
 123   0.0000       3.000775        81.6552 
 124   0.0000       3.336861        90.8006 
 125   0.0000       3.581780        97.4652 
 126   0.0000       4.766451       129.7017 
 127   0.0000       4.766451       129.7017 
 128   0.0000       4.791378       130.3800 
 129   0.0000       4.791402       130.3807 
 130   0.0000       4.945090       134.5627 
 131   0.0000       4.945090       134.5627 
 132   0.0000       5.118846       139.2909 
 133   0.0000       5.118908       139.2926 
 134   0.0000       5.132971       139.6753 
 135   0.0000       5.132971       139.6753 
 136   0.0000       5.157947       140.3549 
 137   0.0000       5.211401       141.8094 
 138   0.0000       5.211405       141.8095 
 139   0.0000       5.312290       144.5548 
 140   0.0000       5.312290       144.5548 
 141   0.0000       5.327780       144.9763 
 142   0.0000       5.616299       152.8273 

                 SPIN DOWN ORBITALS
  NO   OCC          E(Eh)            E(eV) 
   0   1.0000    -196.106872     -5336.3393 
   1   1.0000     -88.341979     -2403.9075 
   2   1.0000     -21.847636      -594.5044 
   3   1.0000     -18.382913      -500.2245 
   4   1.0000     -18.363124      -499.6860 
   5   1.0000     -18.363124      -499.6860 
   6   1.0000      -7.700474      -209.5406 
   7   1.0000      -5.678716      -154.5257 
   8   1.0000      -5.678716      -154.5257 
   9   1.0000      -5.677040      -154.4801 
  10   1.0000      -2.426767       -66.0357 
  11   1.0000      -1.518948       -41.3327 
  12   1.0000      -1.465495       -39.8782 
  13   1.0000      -1.465495       -39.8782 
  14   1.0000      -0.585644       -15.9362 
  15   1.0000      -0.241398        -6.5688 
  16   1.0000      -0.223519        -6.0823 
  17   1.0000      -0.223519        -6.0823 
  18   0.0000      -0.103791        -2.8243 
  19   0.0000      -0.077275        -2.1028 
  20   0.0000      -0.077275        -2.1028 
  21   0.0000      -0.065785        -1.7901 
  22   0.0000      -0.049424        -1.3449 
  23   0.0000      -0.049424        -1.3449 
  24   0.0000      -0.000520        -0.0142 
  25   0.0000      -0.000520        -0.0141 
  26   0.0000       0.011197         0.3047 
  27   0.0000       0.012742         0.3467 
  28   0.0000       0.034120         0.9284 
  29   0.0000       0.034120         0.9284 
  30   0.0000       0.050233         1.3669 
  31   0.0000       0.052119         1.4182 
  32   0.0000       0.052119         1.4182 
  33   0.0000       0.052488         1.4283 
  34   0.0000       0.052489         1.4283 
  35   0.0000       0.066072         1.7979 
  36   0.0000       0.102811         2.7976 
  37   0.0000       0.108724         2.9585 
  38   0.0000       0.108724         2.9585 
  39   0.0000       0.112492         3.0611 
  40   0.0000       0.159072         4.3286 
  41   0.0000       0.159072         4.3286 
  42   0.0000       0.180737         4.9181 
  43   0.0000       0.180737         4.9181 
  44   0.0000       0.181135         4.9289 
  45   0.0000       0.192230         5.2308 
  46   0.0000       0.192230         5.2308 
  47   0.0000       0.213067         5.7978 
  48   0.0000       0.220634         6.0038 
  49   0.0000       0.220636         6.0038 
  50   0.0000       0.282190         7.6788 
  51   0.0000       0.295193         8.0326 
  52   0.0000       0.295193         8.0326 
  53   0.0000       0.360056         9.7976 
  54   0.0000       0.397765        10.8237 
  55   0.0000       0.397765        10.8237 
  56   0.0000       0.430096        11.7035 
  57   0.0000       0.458996        12.4899 
  58   0.0000       0.459000        12.4900 
  59   0.0000       0.481758        13.1093 
  60   0.0000       0.481759        13.1093 
  61   0.0000       0.539021        14.6675 
  62   0.0000       0.539577        14.6826 
  63   0.0000       0.539577        14.6826 
  64   0.0000       0.573206        15.5977 
  65   0.0000       0.573214        15.5979 
  66   0.0000       0.575818        15.6688 
  67   0.0000       0.575818        15.6688 
  68   0.0000       0.596736        16.2380 
  69   0.0000       0.649995        17.6873 
  70   0.0000       0.649995        17.6873 
  71   0.0000       0.702822        19.1248 
  72   0.0000       0.710825        19.3425 
  73   0.0000       0.710826        19.3426 
  74   0.0000       0.739428        20.1209 
  75   0.0000       0.739428        20.1209 
  76   0.0000       0.831336        22.6218 
  77   0.0000       0.840385        22.8680 
  78   0.0000       0.840385        22.8680 
  79   0.0000       0.891745        24.2656 
  80   0.0000       0.909294        24.7431 
  81   0.0000       0.909296        24.7432 
  82   0.0000       1.146605        31.2007 
  83   0.0000       1.148588        31.2547 
  84   0.0000       1.148588        31.2547 
  85   0.0000       1.400923        38.1211 
  86   0.0000       1.400923        38.1211 
  87   0.0000       1.406175        38.2640 
  88   0.0000       1.406176        38.2640 
  89   0.0000       1.468829        39.9689 
  90   0.0000       1.511928        41.1417 
  91   0.0000       1.511928        41.1417 
  92   0.0000       1.642040        44.6822 
  93   0.0000       1.642070        44.6830 
  94   0.0000       1.671924        45.4954 
  95   0.0000       1.671924        45.4954 
  96   0.0000       1.719616        46.7931 
  97   0.0000       1.738836        47.3161 
  98   0.0000       1.738892        47.3177 
  99   0.0000       1.805240        49.1231 
 100   0.0000       1.805240        49.1231 
 101   0.0000       1.840500        50.0826 
 102   0.0000       1.840571        50.0845 
 103   0.0000       1.936110        52.6842 
 104   0.0000       1.972242        53.6674 
 105   0.0000       1.972242        53.6674 
 106   0.0000       2.049646        55.7737 
 107   0.0000       2.105647        57.2976 
 108   0.0000       2.105647        57.2976 
 109   0.0000       2.108077        57.3637 
 110   0.0000       2.108077        57.3637 
 111   0.0000       2.182412        59.3865 
 112   0.0000       2.222107        60.4666 
 113   0.0000       2.222116        60.4669 
 114   0.0000       2.243746        61.0554 
 115   0.0000       2.243746        61.0554 
 116   0.0000       2.433194        66.2106 
 117   0.0000       2.603160        70.8356 
 118   0.0000       2.650811        72.1322 
 119   0.0000       2.650811        72.1322 
 120   0.0000       2.816335        76.6364 
 121   0.0000       2.816352        76.6368 
 122   0.0000       3.059167        83.2442 
 123   0.0000       3.059167        83.2442 
 124   0.0000       3.396894        92.4342 
 125   0.0000       3.611000        98.2603 
 126   0.0000       4.878093       132.7397 
 127   0.0000       4.878143       132.7410 
 128   0.0000       4.895428       133.2114 
 129   0.0000       4.895428       133.2114 
 130   0.0000       5.033301       136.9631 
 131   0.0000       5.033301       136.9631 
 132   0.0000       5.184734       141.0838 
 133   0.0000       5.198393       141.4555 
 134   0.0000       5.198393       141.4555 
 135   0.0000       5.210819       141.7936 
 136   0.0000       5.210833       141.7940 
 137   0.0000       5.268764       143.3704 
 138   0.0000       5.268772       143.3706 
 139   0.0000       5.376681       146.3069 
 140   0.0000       5.376681       146.3069 
 141   0.0000       5.389300       146.6503 
 142   0.0000       5.677906       154.5037 

                    ********************************
                    * MULLIKEN POPULATION ANALYSIS *
                    ********************************

--------------------------------------------
MULLIKEN ATOMIC CHARGES AND SPIN POPULATIONS
--------------------------------------------
   0 V :    0.126385    3.478606
   1 S :   -0.126385   -0.478606
Sum of atomic charges         :    0.0000000
Sum of atomic spin populations:    3.0000000

-----------------------------------------------------
MULLIKEN REDUCED ORBITAL CHARGES AND SPIN POPULATIONS
-----------------------------------------------------
CHARGE
  0 V s       :     6.805402  s :     6.805402
      pz      :     4.085942  p :    12.189952
      px      :     4.052005
      py      :     4.052005
      dz2     :     0.910568  d :     3.847986
      dxz     :     0.471714
      dyz     :     0.471714
      dx2y2   :     0.996995
      dxy     :     0.996994
      f0      :     0.004087  f :     0.025149
      f+1     :     0.010451
      f-1     :     0.010451
      f+2     :     0.000080
      f-2     :     0.000080
      f+3     :     0.000000
      f-3     :     0.000000
      g0      :     0.001105  g :     0.005125
      g+1     :     0.002015
      g-1     :     0.002015
      g+2     :    -0.000005
      g-2     :    -0.000005
      g+3     :     0.000000
      g-3     :     0.000000
      g+4     :     0.000000
      g-4     :     0.000000
  1 S s       :     5.902196  s :     5.902196
      pz      :     3.291054  p :    10.203856
      px      :     3.456401
      py      :     3.456401
      dz2     :    -0.000434  d :     0.019584
      dxz     :     0.007732
      dyz     :     0.007732
      dx2y2   :     0.002277
      dxy     :     0.002277
      f0      :     0.000080  f :     0.000749
      f+1     :    -0.000318
      f-1     :    -0.000318
      f+2     :     0.000653
      f-2     :     0.000653
      f+3     :     0.000000
      f-3     :     0.000000

SPIN
  0 V s       :     0.505767  s :     0.505767
      pz      :     0.000612  p :     0.019825
      px      :     0.009606
      py      :     0.009606
      dz2     :     0.574831  d :     2.957908
      dxz     :     0.194544
      dyz     :     0.194544
      dx2y2   :     0.996995
      dxy     :     0.996994
      f0      :    -0.000945  f :    -0.003324
      f+1     :    -0.001270
      f-1     :    -0.001270
      f+2     :     0.000080
      f-2     :     0.000080
      f+3     :    -0.000000
      f-3     :    -0.000000
      g0      :    -0.000117  g :    -0.001569
      g+1     :    -0.000721
      g-1     :    -0.000721
      g+2     :    -0.000005
      g-2     :    -0.000005
      g+3     :    -0.000000
      g-3     :    -0.000000
      g+4     :     0.000000
      g-4     :     0.000000
  1 S s       :     0.007345  s :     0.007345
      pz      :    -0.091221  p :    -0.500273
      px      :    -0.204526
      py      :    -0.204526
      dz2     :     0.002960  d :     0.011702
      dxz     :     0.002094
      dyz     :     0.002094
      dx2y2   :     0.002277
      dxy     :     0.002277
      f0      :     0.000768  f :     0.002620
      f+1     :     0.000273
      f-1     :     0.000273
      f+2     :     0.000653
      f-2     :     0.000653
      f+3     :    -0.000000
      f-3     :    -0.000000


                     *******************************
                     * LOEWDIN POPULATION ANALYSIS *
                     *******************************

-------------------------------------------
LOEWDIN ATOMIC CHARGES AND SPIN POPULATIONS
-------------------------------------------
   0 V :    0.018148    3.200442
   1 S :   -0.018148   -0.200442

----------------------------------------------------
LOEWDIN REDUCED ORBITAL CHARGES AND SPIN POPULATIONS
----------------------------------------------------
CHARGE
  0 V s       :     6.412836  s :     6.412836
      pz      :     4.192184  p :    12.202096
      px      :     4.004956
      py      :     4.004956
      dz2     :     1.052438  d :     4.063165
      dxz     :     0.530511
      dyz     :     0.530511
      dx2y2   :     0.974853
      dxy     :     0.974852
      f0      :     0.104911  f :     0.261323
      f+1     :     0.076968
      f-1     :     0.076968
      f+2     :     0.001238
      f-2     :     0.001238
      f+3     :     0.000000
      f-3     :     0.000000
      g0      :     0.014828  g :     0.042432
      g+1     :     0.013665
      g-1     :     0.013665
      g+2     :     0.000137
      g-2     :     0.000137
      g+3     :     0.000000
      g-3     :     0.000000
      g+4     :     0.000000
      g-4     :     0.000000
  1 S s       :     5.432527  s :     5.432527
      pz      :     3.512945  p :    10.094877
      px      :     3.290966
      py      :     3.290966
      dz2     :     0.171096  d :     0.277251
      dxz     :     0.042557
      dyz     :     0.042557
      dx2y2   :     0.010520
      dxy     :     0.010520
      f0      :     0.106235  f :     0.213493
      f+1     :     0.040376
      f-1     :     0.040376
      f+2     :     0.013252
      f-2     :     0.013252
      f+3     :     0.000000
      f-3     :     0.000000

SPIN
  0 V s       :     0.434253  s :     0.434253
      pz      :     0.003892  p :    -0.012201
      px      :    -0.008047
      py      :    -0.008047
      dz2     :     0.547388  d :     2.815221
      dxz     :     0.159064
      dyz     :     0.159064
      dx2y2   :     0.974853
      dxy     :     0.974852
      f0      :    -0.001880  f :    -0.030930
      f+1     :    -0.015763
      f-1     :    -0.015763
      f+2     :     0.001238
      f-2     :     0.001238
      f+3     :    -0.000000
      f-3     :    -0.000000
      g0      :    -0.000484  g :    -0.005900
      g+1     :    -0.002845
      g-1     :    -0.002845
      g+2     :     0.000137
      g-2     :     0.000137
      g+3     :    -0.000000
      g-3     :    -0.000000
      g+4     :     0.000000
      g-4     :     0.000000
  1 S s       :     0.022832  s :     0.022832
      pz      :    -0.019871  p :    -0.307810
      px      :    -0.143970
      py      :    -0.143970
      dz2     :     0.010990  d :     0.047472
      dxz     :     0.007721
      dyz     :     0.007721
      dx2y2   :     0.010520
      dxy     :     0.010520
      f0      :     0.002880  f :     0.037064
      f+1     :     0.003839
      f-1     :     0.003839
      f+2     :     0.013252
      f-2     :     0.013252
      f+3     :    -0.000000
      f-3     :    -0.000000


                      *****************************
                      * MAYER POPULATION ANALYSIS *
                      *****************************

  NA   - Mulliken gross atomic population
  ZA   - Total nuclear charge
  QA   - Mulliken gross atomic charge
  VA   - Mayer's total valence
  BVA  - Mayer's bonded valence
  FA   - Mayer's free valence

  ATOM       NA         ZA         QA         VA         BVA        FA
  0 V     22.8736    23.0000     0.1264     5.5129     2.5260     2.9869
  1 S     16.1264    16.0000    -0.1264     2.6229     2.5260     0.0969

  Mayer bond orders larger than 0.100000
B(  0-V ,  1-S ) :   2.5260 

-------
TIMINGS
-------

Total SCF time: 0 days 0 hours 0 min 5 sec 

Total time                  ....       5.095 sec
Sum of individual times     ....       4.923 sec  ( 96.6%)

Fock matrix formation       ....       4.452 sec  ( 87.4%)
  Split-RI-J                ....       3.349 sec  ( 75.2% of F)
  XC integration            ....       0.949 sec  ( 21.3% of F)
    Basis function eval.    ....       0.124 sec  ( 13.0% of XC)
    Density eval.           ....       0.133 sec  ( 14.0% of XC)
    XC-Functional eval.     ....       0.032 sec  (  3.4% of XC)
    XC-Potential eval.      ....       0.374 sec  ( 39.4% of XC)
Diagonalization             ....       0.122 sec  (  2.4%)
Density matrix formation    ....       0.015 sec  (  0.3%)
Population analysis         ....       0.007 sec  (  0.1%)
Initial guess               ....       0.115 sec  (  2.3%)
Orbital Transformation      ....       0.000 sec  (  0.0%)
Orbital Orthonormalization  ....       0.000 sec  (  0.0%)
DIIS solution               ....       0.047 sec  (  0.9%)
Grid generation             ....       0.164 sec  (  3.2%)


-------------------------------------------------------------------------------
                          DFT DISPERSION CORRECTION                            
                                                                               
                              DFTD3 V3.1  Rev 1                                
                          USING Becke-Johnson damping                          
-------------------------------------------------------------------------------
The TPSS functional is recognized
Active option DFTDOPT                   ...         4   

molecular C6(AA) [au] = 1116.027698 


            DFT-D V3
 parameters
 s6 scaling factor         :     1.0000 
 a1 scaling factor         :     0.4535 
 s8 scaling factor         :     1.9435 
 a2 scaling factor         :     4.4752 
 ad hoc parameters k1-k3   :    16.0000     1.3333    -4.0000 

 Edisp/kcal,au: -1.332330285429  -0.002123203232 
 E6   /kcal   :  -0.435258967 
 E8   /kcal   :  -0.897071318 
 % E8         :  67.331001038 

-------------------------   ----------------
Dispersion correction           -0.002123203
-------------------------   ----------------


-------------------------   --------------------
FINAL SINGLE POINT ENERGY     -1342.276652375122
-------------------------   --------------------


                            ***************************************
                            *     ORCA property calculations      *
                            ***************************************

                                    ---------------------
                                    Active property flags
                                    ---------------------
   (+) Dipole Moment


------------------------------------------------------------------------------
                       ORCA ELECTRIC PROPERTIES CALCULATION
------------------------------------------------------------------------------

Dipole Moment Calculation                       ... on
Quadrupole Moment Calculation                   ... off
Polarizability Calculation                      ... off
GBWName                                         ... 18_VS.gbw
Electron density file                           ... 18_VS.scfp
The origin for moment calculation is the CENTER OF MASS  = ( 0.000000,  0.000000  1.447902)

-------------
DIPOLE MOMENT
-------------
                                X             Y             Z
Electronic contribution:     -0.00000       0.00000      -5.67276
Nuclear contribution   :      0.00000       0.00000       3.63475
                        -----------------------------------------
Total Dipole Moment    :     -0.00000       0.00000      -2.03801
                        -----------------------------------------
Magnitude (a.u.)       :      2.03801
Magnitude (Debye)      :      5.18022



--------------------
Rotational spectrum 
--------------------
 
Rotational constants in cm-1:     0.000000     0.202740     0.202740 
Rotational constants in MHz :     0.000000  6078.002656  6078.002656 

 Dipole components along the rotational axes: 
x,y,z [a.u.] :    -2.038014     0.000000    -0.000000 
x,y,z [Debye]:    -5.180221     0.000000    -0.000000 

 

Timings for individual modules:

Sum of individual times         ...        9.273 sec (=   0.155 min)
GTO integral calculation        ...        3.817 sec (=   0.064 min)  41.2 %
SCF iterations                  ...        5.456 sec (=   0.091 min)  58.8 %
                             ****ORCA TERMINATED NORMALLY****
TOTAL RUN TIME: 0 days 0 hours 0 minutes 9 seconds 866 msec
