
                                 *****************
                                 * O   R   C   A *
                                 *****************

           --- An Ab Initio, DFT and Semiempirical electronic structure package ---

                  #######################################################
                  #                        -***-                        #
                  #          Department of theory and spectroscopy      #
                  #               Directorship: Frank Neese             #
                  #        Max Planck Institute fuer Kohlenforschung    #
                  #                Kaiser Wilhelm Platz 1               #
                  #                 D-45470 Muelheim/Ruhr               #
                  #                      Germany                        #
                  #                                                     #
                  #                  All rights reserved                #
                  #                        -***-                        #
                  #######################################################


                         Program Version 4.2.0 -  RELEASE  -


 With contributions from (in alphabetic order):
   Daniel Aravena         : Magnetic Suceptibility
   Michael Atanasov       : Ab Initio Ligand Field Theory (pilot matlab implementation)
   Alexander A. Auer      : GIAO ZORA, VPT2
   Ute Becker             : Parallelization
   Giovanni Bistoni       : ED, misc. LED, open-shell LED, HFLED
   Martin Brehm           : Molecular dynamics
   Dmytro Bykov           : SCF Hessian
   Vijay G. Chilkuri      : MRCI spin determinant printing, contributions to CSF-ICE
   Dipayan Datta          : RHF DLPNO-CCSD density
   Achintya Kumar Dutta   : EOM-CC, STEOM-CC
   Dmitry Ganyushin       : Spin-Orbit,Spin-Spin,Magnetic field MRCI
   Miquel Garcia          : C-PCM Hessian, Gaussian charge scheme
   Yang Guo               : DLPNO-NEVPT2, CIM, IAO-localization
   Andreas Hansen         : Spin unrestricted coupled pair/coupled cluster methods
   Benjamin Helmich-Paris : CASSCF linear response (MC-RPA)
   Lee Huntington         : MR-EOM, pCC
   Robert Izsak           : Overlap fitted RIJCOSX, COSX-SCS-MP3, EOM
   Christian Kollmar      : KDIIS, OOCD, Brueckner-CCSD(T), CCSD density
   Simone Kossmann        : Meta GGA functionals, TD-DFT gradient, OOMP2, MP2 Hessian
   Martin Krupicka        : AUTO-CI
   Lucas Lang             : DCDCAS
   Dagmar Lenk            : GEPOL surface, SMD
   Dimitrios Liakos       : Extrapolation schemes; Compound Job, initial MDCI parallelization
   Dimitrios Manganas     : Further ROCIS development; embedding schemes
   Dimitrios Pantazis     : SARC Basis sets
   Taras Petrenko         : DFT Hessian,TD-DFT gradient, ASA, ECA, R-Raman, ABS, FL, XAS/XES, NRVS
   Peter Pinski           : DLPNO-MP2, DLPNO-MP2 Gradient
   Christoph Reimann      : Effective Core Potentials
   Marius Retegan         : Local ZFS, SOC
   Christoph Riplinger    : Optimizer, TS searches, QM/MM, DLPNO-CCSD(T), (RO)-DLPNO pert. Triples
   Tobias Risthaus        : Range-separated hybrids, TD-DFT gradient, RPA, STAB
   Michael Roemelt        : Original ROCIS implementation
   Masaaki Saitow         : Open-shell DLPNO-CCSD energy and density
   Barbara Sandhoefer     : DKH picture change effects
   Avijit Sen             : IP-ROCIS
   Kantharuban Sivalingam : CASSCF convergence, NEVPT2, FIC-MRCI
   Bernardo de Souza      : ESD, SOC TD-DFT
   Georgi Stoychev        : AutoAux, RI-MP2 NMR
   Willem Van den Heuvel  : Paramagnetic NMR
   Boris Wezisla          : Elementary symmetry handling
   Frank Wennmohs         : Technical directorship


 We gratefully acknowledge several colleagues who have allowed us to
 interface, adapt or use parts of their codes:
   Stefan Grimme, W. Hujo, H. Kruse,             : VdW corrections, initial TS optimization,
                  C. Bannwarth                     DFT functionals, gCP, sTDA/sTD-DF
   Ed Valeev, F. Pavosevic, A. Kumar             : LibInt (2-el integral package), F12 methods
   Garnet Chan, S. Sharma, J. Yang, R. Olivares  : DMRG
   Ulf Ekstrom                                   : XCFun DFT Library
   Mihaly Kallay                                 : mrcc  (arbitrary order and MRCC methods)
   Andreas Klamt, Michael Diedenhofen            : otool_cosmo (COSMO solvation model)
   Jiri Pittner, Ondrej Demel                    : Mk-CCSD
   Frank Weinhold                                : gennbo (NPA and NBO analysis)
   Christopher J. Cramer and Donald G. Truhlar   : smd solvation model
   Lars Goerigk                                  : TD-DFT with DH, B97 family of functionals
   V. Asgeirsson, H. Jonsson                     : NEB implementation
   FAccTs GmbH                                   : IRC, NEB, NEB-TS, Multilevel, MM, QM/MM, CI optimization
   S Lehtola, MJT Oliveira, MAL Marques          : LibXC Library


 Your calculation uses the libint2 library for the computation of 2-el integrals
 For citations please refer to: http://libint.valeyev.net

 Your ORCA version has been built with support for libXC version: 4.2.3
 For citations please refer to: https://tddft.org/programs/libxc/

 This ORCA versions uses:
   CBLAS   interface :  Fast vector & matrix operations
   LAPACKE interface :  Fast linear algebra routines
   SCALAPACK package :  Parallel linear algebra routines


Your calculation utilizes the atom-pairwise dispersion correction
with the Becke-Johnson damping scheme (D3BJ)
Cite in your paper:
S.Grimme, S.Ehrlich, L.Goerigk, J Comput Chem, (2011), 32, 1456–1465 
S.Grimme, J.Antony, S.Ehrlich and H.Krieg, J.Chem.Phys., 132, (2010), 154104 
   

----- Orbital basis set information -----
Your calculation utilizes the basis: aug-cc-pVTZ 
    H, B-Ne : Obtained from the ccRepo (grant-hill.group.shef.ac.uk/ccrepo) Feb. 2017
              R. A. Kendall, T. H. Dunning, Jr., R. J. Harrison, J. Chem. Phys. 96, 6796 (1992)
         He : Obtained from the ccRepo (grant-hill.group.shef.ac.uk/ccrepo) Feb. 2017
              D. E. Woon, T. H. Dunning, Jr., J. Chem. Phys. 100, 2975 (1994)
  Li-Be, Na : Obtained from the ccRepo (grant-hill.group.shef.ac.uk/ccrepo) Feb. 2017
              B. P. Prascher, D. E. Woon, K. A. Peterson, T. H. Dunning, Jr., A. K. Wilson, Theor. Chem. Acc. 128, 69 (2011)
         Mg : Obtained from the Peterson Research Group Website (tyr0.chem.wsu.edu/~kipeters) Feb. 2017
              B. P. Prascher, D. E. Woon, K. A. Peterson, T. H. Dunning, Jr., A. K. Wilson, Theor. Chem. Acc. 128, 69 (2011)
      Al-Ar : Obtained from the ccRepo (grant-hill.group.shef.ac.uk/ccrepo) Feb. 2017
              D. E. Woon, T. H. Dunning, Jr., J. Chem. Phys. 98, 1358 (1993)
      Sc-Zn : Obtained from the ccRepo (grant-hill.group.shef.ac.uk/ccrepo) Feb. 2017
              N. B. Balabanov, K. A. Peterson, J. Chem. Phys. 123, 064107 (2005)
              N. B. Balabanov, K. A. Peterson, J. Chem. Phys. 125, 074110 (2006)
      Ga-Kr : Obtained from the ccRepo (grant-hill.group.shef.ac.uk/ccrepo) Feb. 2017
              A. K. Wilson, D. E. Woon, K. A. Peterson, T. H. Dunning, Jr., J. Chem. Phys. 110, 7667 (1999)
     Ag, Au : Obtained from the Peterson Research Group Website (tyr0.chem.wsu.edu/~kipeters) Feb. 2017
              K. A. Peterson, C. Puzzarini, Theor. Chem. Acc. 114, 283 (2005)

----- AuxJ basis set information -----
Your calculation utilizes the auxiliary basis: def2/J
   F. Weigend, Phys. Chem. Chem. Phys. 8, 1057 (2006).

================================================================================
                                        WARNINGS
                       Please study these warnings very carefully!
================================================================================


WARNING: your system is open-shell and RHF/RKS was chosen
  ===> : WILL SWITCH to UHF/UKS


INFO   : the flag for use of LIBINT has been found!

================================================================================
                                       INPUT FILE
================================================================================
NAME = 19_CrH.in
|  1> #
|  2> # 19_CrH tpss/aug-cc-pvtz
|  3> #
|  4> ! tpss d3bj aug-cc-pvtz def2/j grid4 nofinalgrid
|  5> 
|  6> *xyz 0 6
|  7>   Cr  0.00000000000000      0.00000000000000      0.17036458455703
|  8>   H   0.00000000000000      0.00000000000000      1.82963541544297
|  9> *
| 10> 
| 11> %pal
| 12> nprocs 24
| 13> end
| 14> 
| 15> 
| 16>                          ****END OF INPUT****
================================================================================

                       ****************************
                       * Single Point Calculation *
                       ****************************

---------------------------------
CARTESIAN COORDINATES (ANGSTROEM)
---------------------------------
  Cr     0.000000    0.000000    0.170365
  H      0.000000    0.000000    1.829635

----------------------------
CARTESIAN COORDINATES (A.U.)
----------------------------
  NO LB      ZA    FRAG     MASS         X           Y           Z
   0 Cr   24.0000    0    52.000    0.000000    0.000000    0.321942
   1 H     1.0000    0     1.008    0.000000    0.000000    3.457510

--------------------------------
INTERNAL COORDINATES (ANGSTROEM)
--------------------------------
 Cr     0   0   0     0.000000000000     0.00000000     0.00000000
 H      1   0   0     1.659270830886     0.00000000     0.00000000

---------------------------
INTERNAL COORDINATES (A.U.)
---------------------------
 Cr     0   0   0     0.000000000000     0.00000000     0.00000000
 H      1   0   0     3.135567452378     0.00000000     0.00000000

---------------------
BASIS SET INFORMATION
---------------------
There are 2 groups of distinct atoms

 Group   1 Type Cr  : 116s77p23d3f2g contracted to 8s7p5d3f2g pattern {19191919191911/151515151511/77711/111/11}
 Group   2 Type H   : 6s3p2d contracted to 4s3p2d pattern {3111/111/11}

Atom   0Cr   basis set group =>   1
Atom   1H    basis set group =>   2
---------------------------------
AUXILIARY/J BASIS SET INFORMATION
---------------------------------
There are 2 groups of distinct atoms

 Group   1 Type Cr  : 19s5p5d3f3g contracted to 8s5p5d2f3g pattern {121111111/11111/11111/21/111}
 Group   2 Type H   : 5s2p1d contracted to 3s1p1d pattern {311/2/1}

Atom   0Cr   basis set group =>   1
Atom   1H    basis set group =>   2


           ************************************************************
           *        Program running with 24 parallel MPI-processes    *
           *              working on a common directory               *
           ************************************************************
------------------------------------------------------------------------------
                           ORCA GTO INTEGRAL CALCULATION
                           -- RI-GTO INTEGRALS CHOSEN --
------------------------------------------------------------------------------

                         BASIS SET STATISTICS AND STARTUP INFO

Gaussian basis set:
 # of primitive gaussian shells          ...  232
 # of primitive gaussian functions       ...  526
 # of contracted shells                  ...   34
 # of contracted basis functions         ...  116
 Highest angular momentum                ...    4
 Maximum contraction depth               ...   19
Auxiliary gaussian basis set:
 # of primitive gaussian shells          ...   43
 # of primitive gaussian functions       ...  123
 # of contracted shells                  ...   28
 # of contracted aux-basis functions     ...  100
 Highest angular momentum                ...    4
 Maximum contraction depth               ...   12
Ratio of auxiliary to basis functions    ...  0.86
Integral package used                  ... LIBINT
 One Electron integrals                  ... done
 Ordering auxiliary basis shells         ... done
 Integral threshhold             Thresh  ...  1.000e-10
 Primitive cut-off               TCut    ...  1.000e-11
 Pre-screening matrix                    ... done
 Shell pair data                         ... 
 Ordering of the shell pairs             ... done (   0.000 sec) 595 of 595 pairs
 Determination of significant pairs      ... done (   0.000 sec)
 Creation of shell pair data             ... done (   0.001 sec)
 Storage of shell pair data              ... done (   0.043 sec)
 Shell pair data done in (   0.044 sec)
 Computing two index integrals           ... done
 Cholesky decomposition of the V-matrix  ... done


Timings:
 Total evaluation time                   ...   2.694 sec (  0.045 min)
 One electron matrix time                ...   0.050 sec (  0.001 min) =  1.8%
 Schwartz matrix evaluation time         ...   2.570 sec (  0.043 min) = 95.4%
 Two index repulsion integral time       ...   0.001 sec (  0.000 min) =  0.1%
 Cholesky decomposition of V             ...   0.001 sec (  0.000 min) =  0.0%
 Three index repulsion integral time     ...   0.000 sec (  0.000 min) =  0.0%



           ************************************************************
           *        Program running with 24 parallel MPI-processes    *
           *              working on a common directory               *
           ************************************************************
-------------------------------------------------------------------------------
                                 ORCA SCF
-------------------------------------------------------------------------------

------------
SCF SETTINGS
------------
Hamiltonian:
 Density Functional     Method          .... DFT(GTOs)
 Exchange Functional    Exchange        .... TPSS
 Correlation Functional Correlation     .... TPSS
 LDA part of GGA corr.  LDAOpt          .... PW91-LDA
 Gradients option       PostSCFGGA      .... off
   Density functional embedding theory  .... OFF
   NL short-range parameter             ....  5.000000
 RI-approximation to the Coulomb term is turned on
   Number of auxiliary basis functions  .... 100


General Settings:
 Integral files         IntName         .... 19_CrH
 Hartree-Fock type      HFTyp           .... UHF
 Total Charge           Charge          ....    0
 Multiplicity           Mult            ....    6
 Number of Electrons    NEL             ....   25
 Basis Dimension        Dim             ....  116
 Nuclear Repulsion      ENuc            ....      7.6541169547 Eh

Convergence Acceleration:
 DIIS                   CNVDIIS         .... on
   Start iteration      DIISMaxIt       ....    12
   Startup error        DIISStart       ....  0.200000
   # of expansion vecs  DIISMaxEq       ....     5
   Bias factor          DIISBfac        ....   1.050
   Max. coefficient     DIISMaxC        ....  10.000
 Newton-Raphson         CNVNR           .... off
 SOSCF                  CNVSOSCF        .... off
 Level Shifting         CNVShift        .... on
   Level shift para.    LevelShift      ....    0.2500
   Turn off err/grad.   ShiftErr        ....    0.0010
 Zerner damping         CNVZerner       .... off
 Static damping         CNVDamp         .... on
   Fraction old density DampFac         ....    0.7000
   Max. Damping (<1)    DampMax         ....    0.9800
   Min. Damping (>=0)   DampMin         ....    0.0000
   Turn off err/grad.   DampErr         ....    0.1000
 Fernandez-Rico         CNVRico         .... off

SCF Procedure:
 Maximum # iterations   MaxIter         ....   125
 SCF integral mode      SCFMode         .... Direct
   Integral package                     .... LIBINT
 Reset frequency        DirectResetFreq ....    20
 Integral Threshold     Thresh          ....  1.000e-10 Eh
 Primitive CutOff       TCut            ....  1.000e-11 Eh

Convergence Tolerance:
 Convergence Check Mode ConvCheckMode   .... Total+1el-Energy
 Convergence forced     ConvForced      .... 0
 Energy Change          TolE            ....  1.000e-06 Eh
 1-El. energy change                    ....  1.000e-03 Eh
 DIIS Error             TolErr          ....  1.000e-06


Diagonalization of the overlap matrix:
Smallest eigenvalue                        ... 8.982e-05
Time for diagonalization                   ...    0.004 sec
Threshold for overlap eigenvalues          ... 1.000e-08
Number of eigenvalues below threshold      ... 0
Time for construction of square roots      ...    0.002 sec
Total time needed                          ...    0.006 sec

-------------------
DFT GRID GENERATION
-------------------

General Integration Accuracy     IntAcc      ...  4.670
Radial Grid Type                 RadialGrid  ... Gauss-Chebyshev
Angular Grid (max. acc.)         AngularGrid ... Lebedev-302
Angular grid pruning method      GridPruning ... 3 (G Style)
Weight generation scheme         WeightScheme... Becke
Basis function cutoff            BFCut       ...    1.0000e-10
Integration weight cutoff        WCut        ...    1.0000e-14
Grids for H and He will be reduced by one unit

# of grid points (after initial pruning)     ...  13058 (   0.0 sec)
# of grid points (after weights+screening)   ...  13018 (   0.0 sec)
nearest neighbour list constructed           ...    0.0 sec
Grid point re-assignment to atoms done       ...    0.0 sec
Grid point division into batches done        ...    0.1 sec
Reduced shell lists constructed in    0.1 sec

Total number of grid points                  ...    13018
Total number of batches                      ...      205
Average number of points per batch           ...       63
Average number of grid points per atom       ...     6509
Average number of shells per batch           ...    14.90 (43.82%)
Average number of basis functions per batch  ...    36.70 (31.64%)
Average number of large shells per batch     ...     8.60 (57.72%)
Average number of large basis fcns per batch ...    22.20 (60.49%)
Maximum spatial batch extension              ...  31.41, 28.57, 18.88 au
Average spatial batch extension              ...   1.01,  0.93,  0.72 au

Time for grid setup =    0.123 sec

------------------------------
INITIAL GUESS: MODEL POTENTIAL
------------------------------
Loading Hartree-Fock densities                     ... done
Calculating cut-offs                               ... done
Setting up the integral package                    ... done
Initializing the effective Hamiltonian             ... done
Starting the Coulomb interaction                   ... done (   0.0 sec)
Reading the grid                                   ... done
Mapping shells                                     ... done
Starting the XC term evaluation                    ... done (   0.0 sec)
  promolecular density results
     # of electrons  =     24.999514660
     EX              =    -47.468009517
     EC              =     -1.033786700
     EX+EC           =    -48.501796216
Transforming the Hamiltonian                       ... done (   0.0 sec)
Diagonalizing the Hamiltonian                      ... done (   0.0 sec)
Back transforming the eigenvectors                 ... done (   0.0 sec)
Now organizing SCF variables                       ... done
                      ------------------
                      INITIAL GUESS DONE (   0.2 sec)
                      ------------------
--------------
SCF ITERATIONS
--------------
ITER       Energy         Delta-E        Max-DP      RMS-DP      [F,P]     Damp
               ***  Starting incremental Fock matrix formation  ***
  0  -1045.0187247016   0.000000000000 0.08337954  0.00188082  0.1144884 0.7000
  1  -1045.0435899345  -0.024865232986 0.02900056  0.00063972  0.0783165 0.7000
                               ***Turning on DIIS***
  2  -1045.0541571277  -0.010567193112 0.09982624  0.00227329  0.0434112 0.0000
  3  -1045.0722595669  -0.018102439263 0.01754709  0.00048961  0.0367480 0.0000
  4  -1045.0758640176  -0.003604450662 0.03216634  0.00079424  0.0207998 0.0000
  5  -1045.0769062390  -0.001042221389 0.00851467  0.00020802  0.0079318 0.0000
  6  -1045.0772100593  -0.000303820283 0.00488691  0.00011642  0.0037052 0.0000
  7  -1045.0773188095  -0.000108750291 0.00334893  0.00005319  0.0018824 0.0000
  8  -1045.0773622020  -0.000043392503 0.00262175  0.00003774  0.0011804 0.0000
  9  -1045.0773816742  -0.000019472187 0.00582493  0.00007835  0.0006337 0.0000
 10  -1045.0773976465  -0.000015972269 0.00057961  0.00000888  0.0007749 0.0000
 11  -1045.0773991736  -0.000001527052 0.00047178  0.00001272  0.0002309 0.0000
 12  -1045.0773993481  -0.000000174501 0.00009132  0.00000257  0.0000542 0.0000
 13  -1045.0773994050  -0.000000056988 0.00005823  0.00000086  0.0000328 0.0000
                 **** Energy Check signals convergence ****

               *****************************************************
               *                     SUCCESS                       *
               *           SCF CONVERGED AFTER  14 CYCLES          *
               *****************************************************


----------------
TOTAL SCF ENERGY
----------------

Total Energy       :        -1045.07739938 Eh          -28438.00180 eV

Components:
Nuclear Repulsion  :            7.65411695 Eh             208.27911 eV
Electronic Energy  :        -1052.73151633 Eh          -28646.28091 eV
One Electron Energy:        -1453.73672075 Eh          -39558.18727 eV
Two Electron Energy:          401.00520442 Eh           10911.90636 eV

Virial components:
Potential Energy   :        -2088.35294111 Eh          -56826.97256 eV
Kinetic Energy     :         1043.27554174 Eh           28388.97076 eV
Virial Ratio       :            2.00172712


DFT components:
N(Alpha)           :       15.000001124237 electrons
N(Beta)            :        9.999999259124 electrons
N(Total)           :       25.000000383360 electrons
E(X)               :      -48.083079499596 Eh       
E(C)               :       -1.022058939043 Eh       
E(XC)              :      -49.105138438638 Eh       
DFET-embed. en.    :        0.000000000000 Eh       

---------------
SCF CONVERGENCE
---------------

  Last Energy change         ...    2.8517e-08  Tolerance :   1.0000e-06
  Last MAX-Density change    ...    1.0770e-05  Tolerance :   1.0000e-05
  Last RMS-Density change    ...    1.8849e-07  Tolerance :   1.0000e-06
  Last DIIS Error            ...    1.2891e-05  Tolerance :   1.0000e-06

             **** THE GBW FILE WAS UPDATED (19_CrH.gbw) ****
             **** DENSITY FILE WAS UPDATED (19_CrH.scfp) ****
             **** ENERGY FILE WAS UPDATED (19_CrH.en.tmp) ****
----------------------
UHF SPIN CONTAMINATION
----------------------

Warning: in a DFT calculation there is little theoretical justification to 
         calculate <S**2> as in Hartree-Fock theory. We will do it anyways
         but you should keep in mind that the values have only limited relevance

Expectation value of <S**2>     :     8.790528
Ideal value S*(S+1) for S=2.5   :     8.750000
Deviation                       :     0.040528

             **** THE GBW FILE WAS UPDATED (19_CrH.gbw) ****
             **** DENSITY FILE WAS UPDATED (19_CrH.scfp) ****
----------------
ORBITAL ENERGIES
----------------
                 SPIN UP ORBITALS
  NO   OCC          E(Eh)            E(eV) 
   0   1.0000    -214.897270     -5847.6520 
   1   1.0000     -24.295616      -661.1173 
   2   1.0000     -20.599215      -560.5332 
   3   1.0000     -20.597764      -560.4936 
   4   1.0000     -20.597764      -560.4936 
   5   1.0000      -2.761958       -75.1567 
   6   1.0000      -1.738169       -47.2980 
   7   1.0000      -1.735178       -47.2166 
   8   1.0000      -1.735178       -47.2166 
   9   1.0000      -0.245702        -6.6859 
  10   1.0000      -0.167845        -4.5673 
  11   1.0000      -0.167845        -4.5673 
  12   1.0000      -0.162430        -4.4199 
  13   1.0000      -0.161093        -4.3836 
  14   1.0000      -0.161093        -4.3836 
  15   0.0000      -0.091931        -2.5016 
  16   0.0000      -0.042792        -1.1644 
  17   0.0000      -0.042792        -1.1644 
  18   0.0000       0.001233         0.0336 
  19   0.0000       0.014424         0.3925 
  20   0.0000       0.024766         0.6739 
  21   0.0000       0.024766         0.6739 
  22   0.0000       0.040406         1.0995 
  23   0.0000       0.042346         1.1523 
  24   0.0000       0.042346         1.1523 
  25   0.0000       0.043993         1.1971 
  26   0.0000       0.043993         1.1971 
  27   0.0000       0.066240         1.8025 
  28   0.0000       0.101080         2.7505 
  29   0.0000       0.139324         3.7912 
  30   0.0000       0.139324         3.7912 
  31   0.0000       0.154440         4.2025 
  32   0.0000       0.180408         4.9092 
  33   0.0000       0.192829         5.2472 
  34   0.0000       0.192829         5.2472 
  35   0.0000       0.195322         5.3150 
  36   0.0000       0.195322         5.3150 
  37   0.0000       0.259872         7.0715 
  38   0.0000       0.259872         7.0715 
  39   0.0000       0.261121         7.1055 
  40   0.0000       0.380855        10.3636 
  41   0.0000       0.506429        13.7806 
  42   0.0000       0.506429        13.7806 
  43   0.0000       0.507641        13.8136 
  44   0.0000       0.507641        13.8136 
  45   0.0000       0.580525        15.7969 
  46   0.0000       0.580525        15.7969 
  47   0.0000       0.587532        15.9875 
  48   0.0000       0.612124        16.6568 
  49   0.0000       0.612124        16.6568 
  50   0.0000       0.624801        17.0017 
  51   0.0000       0.678489        18.4626 
  52   0.0000       0.751072        20.4377 
  53   0.0000       0.751072        20.4377 
  54   0.0000       0.765860        20.8401 
  55   0.0000       0.765862        20.8402 
  56   0.0000       0.889059        24.1925 
  57   0.0000       0.889065        24.1927 
  58   0.0000       0.901960        24.5436 
  59   0.0000       0.939518        25.5656 
  60   0.0000       0.939518        25.5656 
  61   0.0000       1.166222        31.7345 
  62   0.0000       1.324309        36.0363 
  63   0.0000       1.324309        36.0363 
  64   0.0000       1.605609        43.6908 
  65   0.0000       1.694112        46.0991 
  66   0.0000       1.734450        47.1968 
  67   0.0000       1.734450        47.1968 
  68   0.0000       1.737297        47.2743 
  69   0.0000       1.737307        47.2745 
  70   0.0000       1.844116        50.1809 
  71   0.0000       1.844116        50.1809 
  72   0.0000       2.079558        56.5877 
  73   0.0000       2.131007        57.9876 
  74   0.0000       2.131044        57.9887 
  75   0.0000       2.132116        58.0178 
  76   0.0000       2.132116        58.0178 
  77   0.0000       2.241243        60.9873 
  78   0.0000       2.241252        60.9876 
  79   0.0000       2.241866        61.0043 
  80   0.0000       2.241866        61.0043 
  81   0.0000       2.313158        62.9442 
  82   0.0000       2.486578        67.6632 
  83   0.0000       2.486578        67.6632 
  84   0.0000       2.663561        72.4792 
  85   0.0000       3.017928        82.1220 
  86   0.0000       3.228180        87.8432 
  87   0.0000       3.228187        87.8434 
  88   0.0000       3.351683        91.2039 
  89   0.0000       3.351683        91.2039 
  90   0.0000       3.683723       100.2392 
  91   0.0000       3.786643       103.0398 
  92   0.0000       3.786787       103.0437 
  93   0.0000       4.131274       112.4177 
  94   0.0000       4.131274       112.4177 
  95   0.0000       4.223463       114.9263 
  96   0.0000       4.223463       114.9263 
  97   0.0000       4.562338       124.1475 
  98   0.0000       4.871385       132.5571 
  99   0.0000       6.060421       164.9124 
 100   0.0000       6.060449       164.9132 
 101   0.0000       6.060760       164.9217 
 102   0.0000       6.060760       164.9217 
 103   0.0000       6.175462       168.0429 
 104   0.0000       6.175462       168.0429 
 105   0.0000       6.428662       174.9328 
 106   0.0000       6.580076       179.0530 
 107   0.0000       6.580076       179.0530 
 108   0.0000       6.582533       179.1198 
 109   0.0000       6.582605       179.1218 
 110   0.0000       6.635771       180.5685 
 111   0.0000       6.635808       180.5695 
 112   0.0000       6.800653       185.0552 
 113   0.0000       6.800653       185.0552 
 114   0.0000       6.902063       187.8147 
 115   0.0000       7.860649       213.8991 

                 SPIN DOWN ORBITALS
  NO   OCC          E(Eh)            E(eV) 
   0   1.0000    -214.896574     -5847.6331 
   1   1.0000     -24.242416      -659.6697 
   2   1.0000     -20.559583      -559.4547 
   3   1.0000     -20.553260      -559.2826 
   4   1.0000     -20.553260      -559.2826 
   5   1.0000      -2.604362       -70.8683 
   6   1.0000      -1.585469       -43.1428 
   7   1.0000      -1.572256       -42.7833 
   8   1.0000      -1.572256       -42.7833 
   9   1.0000      -0.236280        -6.4295 
  10   0.0000      -0.081417        -2.2155 
  11   0.0000      -0.029546        -0.8040 
  12   0.0000      -0.025423        -0.6918 
  13   0.0000      -0.025423        -0.6918 
  14   0.0000      -0.018207        -0.4954 
  15   0.0000      -0.018206        -0.4954 
  16   0.0000      -0.007099        -0.1932 
  17   0.0000      -0.007099        -0.1932 
  18   0.0000       0.014978         0.4076 
  19   0.0000       0.025407         0.6914 
  20   0.0000       0.039910         1.0860 
  21   0.0000       0.039910         1.0860 
  22   0.0000       0.056241         1.5304 
  23   0.0000       0.061192         1.6651 
  24   0.0000       0.061192         1.6651 
  25   0.0000       0.064866         1.7651 
  26   0.0000       0.064866         1.7651 
  27   0.0000       0.075178         2.0457 
  28   0.0000       0.128606         3.4995 
  29   0.0000       0.174735         4.7548 
  30   0.0000       0.174735         4.7548 
  31   0.0000       0.177986         4.8432 
  32   0.0000       0.197177         5.3655 
  33   0.0000       0.221671         6.0320 
  34   0.0000       0.221671         6.0320 
  35   0.0000       0.234358         6.3772 
  36   0.0000       0.234359         6.3772 
  37   0.0000       0.269705         7.3391 
  38   0.0000       0.269705         7.3391 
  39   0.0000       0.279922         7.6171 
  40   0.0000       0.405544        11.0354 
  41   0.0000       0.538093        14.6422 
  42   0.0000       0.538093        14.6422 
  43   0.0000       0.551334        15.0026 
  44   0.0000       0.551334        15.0026 
  45   0.0000       0.632783        17.2189 
  46   0.0000       0.632783        17.2189 
  47   0.0000       0.634568        17.2675 
  48   0.0000       0.643648        17.5145 
  49   0.0000       0.648842        17.6559 
  50   0.0000       0.648842        17.6559 
  51   0.0000       0.694075        18.8868 
  52   0.0000       0.813450        22.1351 
  53   0.0000       0.813450        22.1351 
  54   0.0000       0.822672        22.3861 
  55   0.0000       0.822673        22.3861 
  56   0.0000       0.915126        24.9018 
  57   0.0000       0.915130        24.9019 
  58   0.0000       0.924356        25.1530 
  59   0.0000       0.932121        25.3643 
  60   0.0000       0.932121        25.3643 
  61   0.0000       1.203721        32.7549 
  62   0.0000       1.354925        36.8694 
  63   0.0000       1.354925        36.8694 
  64   0.0000       1.688919        45.9578 
  65   0.0000       1.743624        47.4464 
  66   0.0000       1.841022        50.0968 
  67   0.0000       1.841022        50.0968 
  68   0.0000       1.845980        50.2317 
  69   0.0000       1.846001        50.2322 
  70   0.0000       1.928917        52.4885 
  71   0.0000       1.928917        52.4885 
  72   0.0000       2.130337        57.9694 
  73   0.0000       2.205208        60.0068 
  74   0.0000       2.205236        60.0075 
  75   0.0000       2.214044        60.2472 
  76   0.0000       2.214044        60.2472 
  77   0.0000       2.309546        62.8460 
  78   0.0000       2.309550        62.8460 
  79   0.0000       2.352860        64.0246 
  80   0.0000       2.352860        64.0246 
  81   0.0000       2.402725        65.3815 
  82   0.0000       2.549304        69.3701 
  83   0.0000       2.549304        69.3701 
  84   0.0000       2.727715        74.2249 
  85   0.0000       3.037525        82.6553 
  86   0.0000       3.360317        91.4389 
  87   0.0000       3.360324        91.4391 
  88   0.0000       3.474966        94.5586 
  89   0.0000       3.474966        94.5586 
  90   0.0000       3.778955       102.8306 
  91   0.0000       3.793652       103.2305 
  92   0.0000       3.793774       103.2338 
  93   0.0000       4.177968       113.6883 
  94   0.0000       4.177968       113.6883 
  95   0.0000       4.243577       115.4736 
  96   0.0000       4.243577       115.4736 
  97   0.0000       4.633562       126.0856 
  98   0.0000       4.922394       133.9451 
  99   0.0000       6.241280       169.8339 
 100   0.0000       6.241280       169.8339 
 101   0.0000       6.253209       170.1585 
 102   0.0000       6.253228       170.1590 
 103   0.0000       6.349380       172.7754 
 104   0.0000       6.349380       172.7754 
 105   0.0000       6.582617       179.1221 
 106   0.0000       6.705931       182.4777 
 107   0.0000       6.705980       182.4790 
 108   0.0000       6.709484       182.5743 
 109   0.0000       6.709484       182.5743 
 110   0.0000       6.758250       183.9013 
 111   0.0000       6.758265       183.9017 
 112   0.0000       6.915882       188.1907 
 113   0.0000       6.915882       188.1907 
 114   0.0000       7.019723       191.0164 
 115   0.0000       8.011722       218.0100 

                    ********************************
                    * MULLIKEN POPULATION ANALYSIS *
                    ********************************

--------------------------------------------
MULLIKEN ATOMIC CHARGES AND SPIN POPULATIONS
--------------------------------------------
   0 Cr:    0.258288    5.143635
   1 H :   -0.258288   -0.143635
Sum of atomic charges         :    0.0000000
Sum of atomic spin populations:    5.0000000

-----------------------------------------------------
MULLIKEN REDUCED ORBITAL CHARGES AND SPIN POPULATIONS
-----------------------------------------------------
CHARGE
  0 Crs       :     6.788568  s :     6.788568
      pz      :     4.093058  p :    12.099005
      px      :     4.002973
      py      :     4.002974
      dz2     :     0.853582  d :     4.846876
      dxz     :     0.997086
      dyz     :     0.997086
      dx2y2   :     0.999561
      dxy     :     0.999561
      f0      :     0.006483  f :     0.006952
      f+1     :     0.000036
      f-1     :     0.000036
      f+2     :     0.000199
      f-2     :     0.000199
      f+3     :     0.000000
      f-3     :     0.000000
      g0      :     0.000316  g :     0.000312
      g+1     :    -0.000002
      g-1     :    -0.000002
      g+2     :     0.000000
      g-2     :     0.000000
      g+3     :     0.000000
      g-3     :     0.000000
      g+4     :     0.000000
      g-4     :     0.000000
  1 H s       :     1.257268  s :     1.257268
      pz      :     0.000835  p :     0.002653
      px      :     0.000909
      py      :     0.000909
      dz2     :    -0.000108  d :    -0.001633
      dxz     :    -0.001002
      dyz     :    -0.001002
      dx2y2   :     0.000240
      dxy     :     0.000240

SPIN
  0 Crs       :     0.509586  s :     0.509586
      pz      :     0.007736  p :     0.013477
      px      :     0.002870
      py      :     0.002870
      dz2     :     0.628617  d :     4.621783
      dxz     :     0.997022
      dyz     :     0.997022
      dx2y2   :     0.999561
      dxy     :     0.999561
      f0      :    -0.001212  f :    -0.000745
      f+1     :     0.000035
      f-1     :     0.000035
      f+2     :     0.000199
      f-2     :     0.000199
      f+3     :     0.000000
      f-3     :     0.000000
      g0      :    -0.000461  g :    -0.000466
      g+1     :    -0.000003
      g-1     :    -0.000003
      g+2     :     0.000000
      g-2     :     0.000000
      g+3     :     0.000000
      g-3     :     0.000000
      g+4     :     0.000000
      g-4     :     0.000000
  1 H s       :    -0.142788  s :    -0.142788
      pz      :    -0.000821  p :     0.000823
      px      :     0.000822
      py      :     0.000822
      dz2     :    -0.000657  d :    -0.001670
      dxz     :    -0.000746
      dyz     :    -0.000746
      dx2y2   :     0.000240
      dxy     :     0.000240


                     *******************************
                     * LOEWDIN POPULATION ANALYSIS *
                     *******************************

-------------------------------------------
LOEWDIN ATOMIC CHARGES AND SPIN POPULATIONS
-------------------------------------------
   0 Cr:    0.608183    4.885136
   1 H :   -0.608183    0.114864

----------------------------------------------------
LOEWDIN REDUCED ORBITAL CHARGES AND SPIN POPULATIONS
----------------------------------------------------
CHARGE
  0 Crs       :     6.636714  s :     6.636714
      pz      :     4.076067  p :    11.991275
      px      :     3.957604
      py      :     3.957604
      dz2     :     0.867386  d :     4.728373
      dxz     :     0.938383
      dyz     :     0.938383
      dx2y2   :     0.992111
      dxy     :     0.992111
      f0      :     0.026714  f :     0.031923
      f+1     :     0.001970
      f-1     :     0.001970
      f+2     :     0.000634
      f-2     :     0.000634
      f+3     :     0.000000
      f-3     :     0.000000
      g0      :     0.002921  g :     0.003532
      g+1     :     0.000279
      g-1     :     0.000279
      g+2     :     0.000027
      g-2     :     0.000027
      g+3     :     0.000000
      g-3     :     0.000000
      g+4     :     0.000000
      g-4     :     0.000000
  1 H s       :     1.066074  s :     1.066074
      pz      :     0.196929  p :     0.286554
      px      :     0.044813
      py      :     0.044813
      dz2     :     0.127196  d :     0.255555
      dxz     :     0.056951
      dyz     :     0.056951
      dx2y2   :     0.007229
      dxy     :     0.007229

SPIN
  0 Crs       :     0.466512  s :     0.466512
      pz      :    -0.033943  p :    -0.013951
      px      :     0.009996
      py      :     0.009996
      dz2     :     0.579908  d :     4.435411
      dxz     :     0.935641
      dyz     :     0.935641
      dx2y2   :     0.992111
      dxy     :     0.992111
      f0      :    -0.006510  f :    -0.002292
      f+1     :     0.001475
      f-1     :     0.001475
      f+2     :     0.000634
      f-2     :     0.000634
      f+3     :     0.000000
      f-3     :     0.000000
      g0      :    -0.001082  g :    -0.000544
      g+1     :     0.000242
      g-1     :     0.000242
      g+2     :     0.000027
      g-2     :     0.000027
      g+3     :     0.000000
      g-3     :     0.000000
      g+4     :     0.000000
      g-4     :     0.000000
  1 H s       :    -0.040013  s :    -0.040013
      pz      :     0.034288  p :     0.090335
      px      :     0.028023
      py      :     0.028023
      dz2     :     0.000840  d :     0.064543
      dxz     :     0.024623
      dyz     :     0.024623
      dx2y2   :     0.007229
      dxy     :     0.007229


                      *****************************
                      * MAYER POPULATION ANALYSIS *
                      *****************************

  NA   - Mulliken gross atomic population
  ZA   - Total nuclear charge
  QA   - Mulliken gross atomic charge
  VA   - Mayer's total valence
  BVA  - Mayer's bonded valence
  FA   - Mayer's free valence

  ATOM       NA         ZA         QA         VA         BVA        FA
  0 Cr    23.7417    24.0000     0.2583     5.9449     0.9988     4.9461
  1 H      1.2583     1.0000    -0.2583     1.0405     0.9988     0.0416

  Mayer bond orders larger than 0.100000
B(  0-Cr,  1-H ) :   0.9988 

-------
TIMINGS
-------

Total SCF time: 0 days 0 hours 0 min 2 sec 

Total time                  ....       2.716 sec
Sum of individual times     ....       2.562 sec  ( 94.4%)

Fock matrix formation       ....       2.245 sec  ( 82.7%)
  Split-RI-J                ....       1.765 sec  ( 78.6% of F)
  XC integration            ....       0.387 sec  ( 17.3% of F)
    Basis function eval.    ....       0.055 sec  ( 14.3% of XC)
    Density eval.           ....       0.054 sec  ( 13.8% of XC)
    XC-Functional eval.     ....       0.017 sec  (  4.5% of XC)
    XC-Potential eval.      ....       0.151 sec  ( 38.8% of XC)
Diagonalization             ....       0.049 sec  (  1.8%)
Density matrix formation    ....       0.008 sec  (  0.3%)
Population analysis         ....       0.006 sec  (  0.2%)
Initial guess               ....       0.112 sec  (  4.1%)
Orbital Transformation      ....       0.000 sec  (  0.0%)
Orbital Orthonormalization  ....       0.000 sec  (  0.0%)
DIIS solution               ....       0.021 sec  (  0.8%)
Grid generation             ....       0.123 sec  (  4.5%)


-------------------------------------------------------------------------------
                          DFT DISPERSION CORRECTION                            
                                                                               
                              DFTD3 V3.1  Rev 1                                
                          USING Becke-Johnson damping                          
-------------------------------------------------------------------------------
The TPSS functional is recognized
Active option DFTDOPT                   ...         4   

molecular C6(AA) [au] = 544.079690 


            DFT-D V3
 parameters
 s6 scaling factor         :     1.0000 
 a1 scaling factor         :     0.4535 
 s8 scaling factor         :     1.9435 
 a2 scaling factor         :     4.4752 
 ad hoc parameters k1-k3   :    16.0000     1.3333    -4.0000 

 Edisp/kcal,au: -0.389261452288  -0.000620327544 
 E6   /kcal   :  -0.169476485 
 E8   /kcal   :  -0.219784967 
 % E8         :  56.462042639 

-------------------------   ----------------
Dispersion correction           -0.000620328
-------------------------   ----------------


-------------------------   --------------------
FINAL SINGLE POINT ENERGY     -1045.078019704069
-------------------------   --------------------


                            ***************************************
                            *     ORCA property calculations      *
                            ***************************************

                                    ---------------------
                                    Active property flags
                                    ---------------------
   (+) Dipole Moment


------------------------------------------------------------------------------
                       ORCA ELECTRIC PROPERTIES CALCULATION
------------------------------------------------------------------------------

Dipole Moment Calculation                       ... on
Quadrupole Moment Calculation                   ... off
Polarizability Calculation                      ... off
GBWName                                         ... 19_CrH.gbw
Electron density file                           ... 19_CrH.scfp
The origin for moment calculation is the CENTER OF MASS  = ( 0.000000,  0.000000  0.381568)

-------------
DIPOLE MOMENT
-------------
                                X             Y             Z
Electronic contribution:     -0.00000      -0.00000      -2.77438
Nuclear contribution   :      0.00000       0.00000       1.64492
                        -----------------------------------------
Total Dipole Moment    :     -0.00000      -0.00000      -1.12946
                        -----------------------------------------
Magnitude (a.u.)       :      1.12946
Magnitude (Debye)      :      2.87086



--------------------
Rotational spectrum 
--------------------
 
Rotational constants in cm-1:     0.000000     6.192127     6.192127 
Rotational constants in MHz :     0.000000 185635.310837 185635.310837 

 Dipole components along the rotational axes: 
x,y,z [a.u.] :    -1.129461    -0.000000    -0.000000 
x,y,z [Debye]:    -2.870863    -0.000000    -0.000000 

 

Timings for individual modules:

Sum of individual times         ...        6.242 sec (=   0.104 min)
GTO integral calculation        ...        3.179 sec (=   0.053 min)  50.9 %
SCF iterations                  ...        3.064 sec (=   0.051 min)  49.1 %
                             ****ORCA TERMINATED NORMALLY****
TOTAL RUN TIME: 0 days 0 hours 0 minutes 6 seconds 813 msec
