
                                 *****************
                                 * O   R   C   A *
                                 *****************

           --- An Ab Initio, DFT and Semiempirical electronic structure package ---

                  #######################################################
                  #                        -***-                        #
                  #          Department of theory and spectroscopy      #
                  #               Directorship: Frank Neese             #
                  #        Max Planck Institute fuer Kohlenforschung    #
                  #                Kaiser Wilhelm Platz 1               #
                  #                 D-45470 Muelheim/Ruhr               #
                  #                      Germany                        #
                  #                                                     #
                  #                  All rights reserved                #
                  #                        -***-                        #
                  #######################################################


                         Program Version 4.2.0 -  RELEASE  -


 With contributions from (in alphabetic order):
   Daniel Aravena         : Magnetic Suceptibility
   Michael Atanasov       : Ab Initio Ligand Field Theory (pilot matlab implementation)
   Alexander A. Auer      : GIAO ZORA, VPT2
   Ute Becker             : Parallelization
   Giovanni Bistoni       : ED, misc. LED, open-shell LED, HFLED
   Martin Brehm           : Molecular dynamics
   Dmytro Bykov           : SCF Hessian
   Vijay G. Chilkuri      : MRCI spin determinant printing, contributions to CSF-ICE
   Dipayan Datta          : RHF DLPNO-CCSD density
   Achintya Kumar Dutta   : EOM-CC, STEOM-CC
   Dmitry Ganyushin       : Spin-Orbit,Spin-Spin,Magnetic field MRCI
   Miquel Garcia          : C-PCM Hessian, Gaussian charge scheme
   Yang Guo               : DLPNO-NEVPT2, CIM, IAO-localization
   Andreas Hansen         : Spin unrestricted coupled pair/coupled cluster methods
   Benjamin Helmich-Paris : CASSCF linear response (MC-RPA)
   Lee Huntington         : MR-EOM, pCC
   Robert Izsak           : Overlap fitted RIJCOSX, COSX-SCS-MP3, EOM
   Christian Kollmar      : KDIIS, OOCD, Brueckner-CCSD(T), CCSD density
   Simone Kossmann        : Meta GGA functionals, TD-DFT gradient, OOMP2, MP2 Hessian
   Martin Krupicka        : AUTO-CI
   Lucas Lang             : DCDCAS
   Dagmar Lenk            : GEPOL surface, SMD
   Dimitrios Liakos       : Extrapolation schemes; Compound Job, initial MDCI parallelization
   Dimitrios Manganas     : Further ROCIS development; embedding schemes
   Dimitrios Pantazis     : SARC Basis sets
   Taras Petrenko         : DFT Hessian,TD-DFT gradient, ASA, ECA, R-Raman, ABS, FL, XAS/XES, NRVS
   Peter Pinski           : DLPNO-MP2, DLPNO-MP2 Gradient
   Christoph Reimann      : Effective Core Potentials
   Marius Retegan         : Local ZFS, SOC
   Christoph Riplinger    : Optimizer, TS searches, QM/MM, DLPNO-CCSD(T), (RO)-DLPNO pert. Triples
   Tobias Risthaus        : Range-separated hybrids, TD-DFT gradient, RPA, STAB
   Michael Roemelt        : Original ROCIS implementation
   Masaaki Saitow         : Open-shell DLPNO-CCSD energy and density
   Barbara Sandhoefer     : DKH picture change effects
   Avijit Sen             : IP-ROCIS
   Kantharuban Sivalingam : CASSCF convergence, NEVPT2, FIC-MRCI
   Bernardo de Souza      : ESD, SOC TD-DFT
   Georgi Stoychev        : AutoAux, RI-MP2 NMR
   Willem Van den Heuvel  : Paramagnetic NMR
   Boris Wezisla          : Elementary symmetry handling
   Frank Wennmohs         : Technical directorship


 We gratefully acknowledge several colleagues who have allowed us to
 interface, adapt or use parts of their codes:
   Stefan Grimme, W. Hujo, H. Kruse,             : VdW corrections, initial TS optimization,
                  C. Bannwarth                     DFT functionals, gCP, sTDA/sTD-DF
   Ed Valeev, F. Pavosevic, A. Kumar             : LibInt (2-el integral package), F12 methods
   Garnet Chan, S. Sharma, J. Yang, R. Olivares  : DMRG
   Ulf Ekstrom                                   : XCFun DFT Library
   Mihaly Kallay                                 : mrcc  (arbitrary order and MRCC methods)
   Andreas Klamt, Michael Diedenhofen            : otool_cosmo (COSMO solvation model)
   Jiri Pittner, Ondrej Demel                    : Mk-CCSD
   Frank Weinhold                                : gennbo (NPA and NBO analysis)
   Christopher J. Cramer and Donald G. Truhlar   : smd solvation model
   Lars Goerigk                                  : TD-DFT with DH, B97 family of functionals
   V. Asgeirsson, H. Jonsson                     : NEB implementation
   FAccTs GmbH                                   : IRC, NEB, NEB-TS, Multilevel, MM, QM/MM, CI optimization
   S Lehtola, MJT Oliveira, MAL Marques          : LibXC Library


 Your calculation uses the libint2 library for the computation of 2-el integrals
 For citations please refer to: http://libint.valeyev.net

 Your ORCA version has been built with support for libXC version: 4.2.3
 For citations please refer to: https://tddft.org/programs/libxc/

 This ORCA versions uses:
   CBLAS   interface :  Fast vector & matrix operations
   LAPACKE interface :  Fast linear algebra routines
   SCALAPACK package :  Parallel linear algebra routines


Your calculation utilizes the atom-pairwise dispersion correction
with the Becke-Johnson damping scheme (D3BJ)
Cite in your paper:
S.Grimme, S.Ehrlich, L.Goerigk, J Comput Chem, (2011), 32, 1456–1465 
S.Grimme, J.Antony, S.Ehrlich and H.Krieg, J.Chem.Phys., 132, (2010), 154104 
   

----- Orbital basis set information -----
Your calculation utilizes the basis: aug-cc-pVTZ 
    H, B-Ne : Obtained from the ccRepo (grant-hill.group.shef.ac.uk/ccrepo) Feb. 2017
              R. A. Kendall, T. H. Dunning, Jr., R. J. Harrison, J. Chem. Phys. 96, 6796 (1992)
         He : Obtained from the ccRepo (grant-hill.group.shef.ac.uk/ccrepo) Feb. 2017
              D. E. Woon, T. H. Dunning, Jr., J. Chem. Phys. 100, 2975 (1994)
  Li-Be, Na : Obtained from the ccRepo (grant-hill.group.shef.ac.uk/ccrepo) Feb. 2017
              B. P. Prascher, D. E. Woon, K. A. Peterson, T. H. Dunning, Jr., A. K. Wilson, Theor. Chem. Acc. 128, 69 (2011)
         Mg : Obtained from the Peterson Research Group Website (tyr0.chem.wsu.edu/~kipeters) Feb. 2017
              B. P. Prascher, D. E. Woon, K. A. Peterson, T. H. Dunning, Jr., A. K. Wilson, Theor. Chem. Acc. 128, 69 (2011)
      Al-Ar : Obtained from the ccRepo (grant-hill.group.shef.ac.uk/ccrepo) Feb. 2017
              D. E. Woon, T. H. Dunning, Jr., J. Chem. Phys. 98, 1358 (1993)
      Sc-Zn : Obtained from the ccRepo (grant-hill.group.shef.ac.uk/ccrepo) Feb. 2017
              N. B. Balabanov, K. A. Peterson, J. Chem. Phys. 123, 064107 (2005)
              N. B. Balabanov, K. A. Peterson, J. Chem. Phys. 125, 074110 (2006)
      Ga-Kr : Obtained from the ccRepo (grant-hill.group.shef.ac.uk/ccrepo) Feb. 2017
              A. K. Wilson, D. E. Woon, K. A. Peterson, T. H. Dunning, Jr., J. Chem. Phys. 110, 7667 (1999)
     Ag, Au : Obtained from the Peterson Research Group Website (tyr0.chem.wsu.edu/~kipeters) Feb. 2017
              K. A. Peterson, C. Puzzarini, Theor. Chem. Acc. 114, 283 (2005)

----- AuxJ basis set information -----
Your calculation utilizes the auxiliary basis: def2/J
   F. Weigend, Phys. Chem. Chem. Phys. 8, 1057 (2006).

================================================================================
                                        WARNINGS
                       Please study these warnings very carefully!
================================================================================


WARNING: your system is open-shell and RHF/RKS was chosen
  ===> : WILL SWITCH to UHF/UKS


INFO   : the flag for use of LIBINT has been found!

================================================================================
                                       INPUT FILE
================================================================================
NAME = 26_MnF.in
|  1> #
|  2> # 26_MnF tpss/aug-cc-pvtz
|  3> #
|  4> ! tpss d3bj aug-cc-pvtz def2/j grid4 nofinalgrid
|  5> 
|  6> *xyz 0 7
|  7>   Mn  0.00000000000000      0.00000000000000      0.08590077209256
|  8>   F   0.00000000000000      0.00000000000000      1.91409922790744
|  9> *
| 10> 
| 11> %pal
| 12> nprocs 24
| 13> end
| 14> 
| 15> 
| 16>                          ****END OF INPUT****
================================================================================

                       ****************************
                       * Single Point Calculation *
                       ****************************

---------------------------------
CARTESIAN COORDINATES (ANGSTROEM)
---------------------------------
  Mn     0.000000    0.000000    0.085901
  F      0.000000    0.000000    1.914099

----------------------------
CARTESIAN COORDINATES (A.U.)
----------------------------
  NO LB      ZA    FRAG     MASS         X           Y           Z
   0 Mn   25.0000    0    54.940    0.000000    0.000000    0.162329
   1 F     9.0000    0    18.998    0.000000    0.000000    3.617123

--------------------------------
INTERNAL COORDINATES (ANGSTROEM)
--------------------------------
 Mn     0   0   0     0.000000000000     0.00000000     0.00000000
 F      1   0   0     1.828198455815     0.00000000     0.00000000

---------------------------
INTERNAL COORDINATES (A.U.)
---------------------------
 Mn     0   0   0     0.000000000000     0.00000000     0.00000000
 F      1   0   0     3.454794399948     0.00000000     0.00000000

---------------------
BASIS SET INFORMATION
---------------------
There are 2 groups of distinct atoms

 Group   1 Type Mn  : 116s77p23d3f2g contracted to 8s7p5d3f2g pattern {19191919191911/151515151511/77711/111/11}
 Group   2 Type F   : 19s6p3d2f contracted to 5s4p3d2f pattern {88111/3111/111/11}

Atom   0Mn   basis set group =>   1
Atom   1F    basis set group =>   2
---------------------------------
AUXILIARY/J BASIS SET INFORMATION
---------------------------------
There are 2 groups of distinct atoms

 Group   1 Type Mn  : 19s5p5d3f3g contracted to 8s5p5d2f3g pattern {121111111/11111/11111/21/111}
 Group   2 Type F   : 12s5p4d2f1g contracted to 6s4p3d1f1g pattern {711111/2111/211/2/1}

Atom   0Mn   basis set group =>   1
Atom   1F    basis set group =>   2


           ************************************************************
           *        Program running with 24 parallel MPI-processes    *
           *              working on a common directory               *
           ************************************************************
------------------------------------------------------------------------------
                           ORCA GTO INTEGRAL CALCULATION
                           -- RI-GTO INTEGRALS CHOSEN --
------------------------------------------------------------------------------

                         BASIS SET STATISTICS AND STARTUP INFO

Gaussian basis set:
 # of primitive gaussian shells          ...  251
 # of primitive gaussian functions       ...  567
 # of contracted shells                  ...   39
 # of contracted basis functions         ...  139
 Highest angular momentum                ...    4
 Maximum contraction depth               ...   19
Auxiliary gaussian basis set:
 # of primitive gaussian shells          ...   59
 # of primitive gaussian functions       ...  177
 # of contracted shells                  ...   38
 # of contracted aux-basis functions     ...  138
 Highest angular momentum                ...    4
 Maximum contraction depth               ...   12
Ratio of auxiliary to basis functions    ...  0.99
Integral package used                  ... LIBINT
 One Electron integrals                  ... done
 Ordering auxiliary basis shells         ... done
 Integral threshhold             Thresh  ...  1.000e-10
 Primitive cut-off               TCut    ...  1.000e-11
 Pre-screening matrix                    ... done
 Shell pair data                         ... 
 Ordering of the shell pairs             ... done (   0.000 sec) 780 of 780 pairs
 Determination of significant pairs      ... done (   0.000 sec)
 Creation of shell pair data             ... done (   0.001 sec)
 Storage of shell pair data              ... done (   0.135 sec)
 Shell pair data done in (   0.136 sec)
 Computing two index integrals           ... done
 Cholesky decomposition of the V-matrix  ... done


Timings:
 Total evaluation time                   ...   2.720 sec (  0.045 min)
 One electron matrix time                ...   0.046 sec (  0.001 min) =  1.7%
 Schwartz matrix evaluation time         ...   2.508 sec (  0.042 min) = 92.2%
 Two index repulsion integral time       ...   0.002 sec (  0.000 min) =  0.1%
 Cholesky decomposition of V             ...   0.001 sec (  0.000 min) =  0.0%
 Three index repulsion integral time     ...   0.000 sec (  0.000 min) =  0.0%



           ************************************************************
           *        Program running with 24 parallel MPI-processes    *
           *              working on a common directory               *
           ************************************************************
-------------------------------------------------------------------------------
                                 ORCA SCF
-------------------------------------------------------------------------------

------------
SCF SETTINGS
------------
Hamiltonian:
 Density Functional     Method          .... DFT(GTOs)
 Exchange Functional    Exchange        .... TPSS
 Correlation Functional Correlation     .... TPSS
 LDA part of GGA corr.  LDAOpt          .... PW91-LDA
 Gradients option       PostSCFGGA      .... off
   Density functional embedding theory  .... OFF
   NL short-range parameter             ....  5.000000
 RI-approximation to the Coulomb term is turned on
   Number of auxiliary basis functions  .... 138


General Settings:
 Integral files         IntName         .... 26_MnF
 Hartree-Fock type      HFTyp           .... UHF
 Total Charge           Charge          ....    0
 Multiplicity           Mult            ....    7
 Number of Electrons    NEL             ....   34
 Basis Dimension        Dim             ....  139
 Nuclear Repulsion      ENuc            ....     65.1268856993 Eh

Convergence Acceleration:
 DIIS                   CNVDIIS         .... on
   Start iteration      DIISMaxIt       ....    12
   Startup error        DIISStart       ....  0.200000
   # of expansion vecs  DIISMaxEq       ....     5
   Bias factor          DIISBfac        ....   1.050
   Max. coefficient     DIISMaxC        ....  10.000
 Newton-Raphson         CNVNR           .... off
 SOSCF                  CNVSOSCF        .... off
 Level Shifting         CNVShift        .... on
   Level shift para.    LevelShift      ....    0.2500
   Turn off err/grad.   ShiftErr        ....    0.0010
 Zerner damping         CNVZerner       .... off
 Static damping         CNVDamp         .... on
   Fraction old density DampFac         ....    0.7000
   Max. Damping (<1)    DampMax         ....    0.9800
   Min. Damping (>=0)   DampMin         ....    0.0000
   Turn off err/grad.   DampErr         ....    0.1000
 Fernandez-Rico         CNVRico         .... off

SCF Procedure:
 Maximum # iterations   MaxIter         ....   125
 SCF integral mode      SCFMode         .... Direct
   Integral package                     .... LIBINT
 Reset frequency        DirectResetFreq ....    20
 Integral Threshold     Thresh          ....  1.000e-10 Eh
 Primitive CutOff       TCut            ....  1.000e-11 Eh

Convergence Tolerance:
 Convergence Check Mode ConvCheckMode   .... Total+1el-Energy
 Convergence forced     ConvForced      .... 0
 Energy Change          TolE            ....  1.000e-06 Eh
 1-El. energy change                    ....  1.000e-03 Eh
 DIIS Error             TolErr          ....  1.000e-06


Diagonalization of the overlap matrix:
Smallest eigenvalue                        ... 5.155e-05
Time for diagonalization                   ...    0.005 sec
Threshold for overlap eigenvalues          ... 1.000e-08
Number of eigenvalues below threshold      ... 0
Time for construction of square roots      ...    0.002 sec
Total time needed                          ...    0.008 sec

-------------------
DFT GRID GENERATION
-------------------

General Integration Accuracy     IntAcc      ...  4.670
Radial Grid Type                 RadialGrid  ... Gauss-Chebyshev
Angular Grid (max. acc.)         AngularGrid ... Lebedev-302
Angular grid pruning method      GridPruning ... 3 (G Style)
Weight generation scheme         WeightScheme... Becke
Basis function cutoff            BFCut       ...    1.0000e-10
Integration weight cutoff        WCut        ...    1.0000e-14
Grids for H and He will be reduced by one unit

# of grid points (after initial pruning)     ...  15936 (   0.0 sec)
# of grid points (after weights+screening)   ...  15888 (   0.0 sec)
nearest neighbour list constructed           ...    0.0 sec
Grid point re-assignment to atoms done       ...    0.0 sec
Grid point division into batches done        ...    0.1 sec
Reduced shell lists constructed in    0.1 sec

Total number of grid points                  ...    15888
Total number of batches                      ...      250
Average number of points per batch           ...       63
Average number of grid points per atom       ...     7944
Average number of shells per batch           ...    15.17 (38.89%)
Average number of basis functions per batch  ...    36.00 (25.90%)
Average number of large shells per batch     ...     9.58 (63.19%)
Average number of large basis fcns per batch ...    23.25 (64.58%)
Maximum spatial batch extension              ...  28.57, 31.41, 18.58 au
Average spatial batch extension              ...   0.88,  0.94,  0.67 au

Time for grid setup =    0.145 sec

------------------------------
INITIAL GUESS: MODEL POTENTIAL
------------------------------
Loading Hartree-Fock densities                     ... done
Calculating cut-offs                               ... done
Setting up the integral package                    ... done
Initializing the effective Hamiltonian             ... done
Starting the Coulomb interaction                   ... done (   0.0 sec)
Reading the grid                                   ... done
Mapping shells                                     ... done
Starting the XC term evaluation                    ... done (   0.0 sec)
  promolecular density results
     # of electrons  =     34.000001172
     EX              =    -60.549211977
     EC              =     -1.383177405
     EX+EC           =    -61.932389382
Transforming the Hamiltonian                       ... done (   0.0 sec)
Diagonalizing the Hamiltonian                      ... done (   0.0 sec)
Back transforming the eigenvectors                 ... done (   0.0 sec)
Now organizing SCF variables                       ... done
                      ------------------
                      INITIAL GUESS DONE (   0.3 sec)
                      ------------------
--------------
SCF ITERATIONS
--------------
ITER       Energy         Delta-E        Max-DP      RMS-DP      [F,P]     Damp
               ***  Starting incremental Fock matrix formation  ***
  0  -1250.8767963881   0.000000000000 0.06960536  0.00154919  0.2962687 0.7000
  1  -1250.9184120986  -0.041615710471 0.03489992  0.00077359  0.0326220 0.7000
                               ***Turning on DIIS***
  2  -1250.9274752418  -0.009063143215 0.09156942  0.00184153  0.0467588 0.0000
  3  -1250.9652330245  -0.037757782700 0.05244427  0.00105494  0.0919199 0.0000
  4  -1250.9732368154  -0.008003790894 0.01511235  0.00035126  0.0525008 0.0000
  5  -1250.9754071563  -0.002170340922 0.01059785  0.00023645  0.0282238 0.0000
  6  -1250.9767654049  -0.001358248619 0.00843039  0.00017912  0.0160586 0.0000
  7  -1250.9770089876  -0.000243582647 0.00687717  0.00013543  0.0054210 0.0000
  8  -1250.9771011726  -0.000092185063 0.00238974  0.00004376  0.0013006 0.0000
  9  -1250.9771050768  -0.000003904203 0.00208144  0.00002154  0.0001955 0.0000
 10  -1250.9771056729  -0.000000596119 0.00022690  0.00000460  0.0001534 0.0000
                 **** Energy Check signals convergence ****

               *****************************************************
               *                     SUCCESS                       *
               *           SCF CONVERGED AFTER  11 CYCLES          *
               *****************************************************


----------------
TOTAL SCF ENERGY
----------------

Total Energy       :        -1250.97710546 Eh          -34040.81764 eV

Components:
Nuclear Repulsion  :           65.12688570 Eh            1772.19266 eV
Electronic Energy  :        -1316.10399116 Eh          -35813.01030 eV
One Electron Energy:        -1855.46779357 Eh          -50489.84552 eV
Two Electron Energy:          539.36380241 Eh           14676.83522 eV

Virial components:
Potential Energy   :        -2499.90272355 Eh          -68025.81147 eV
Kinetic Energy     :         1248.92561809 Eh           33984.99383 eV
Virial Ratio       :            2.00164260


DFT components:
N(Alpha)           :       20.000014918968 electrons
N(Beta)            :       14.000014692402 electrons
N(Total)           :       34.000029611370 electrons
E(X)               :      -61.280321189355 Eh       
E(C)               :       -1.363351760031 Eh       
E(XC)              :      -62.643672949386 Eh       
DFET-embed. en.    :        0.000000000000 Eh       

---------------
SCF CONVERGENCE
---------------

  Last Energy change         ...    2.1184e-07  Tolerance :   1.0000e-06
  Last MAX-Density change    ...    1.5710e-04  Tolerance :   1.0000e-05
  Last RMS-Density change    ...    2.6069e-06  Tolerance :   1.0000e-06
  Last DIIS Error            ...    3.7410e-05  Tolerance :   1.0000e-06

             **** THE GBW FILE WAS UPDATED (26_MnF.gbw) ****
             **** DENSITY FILE WAS UPDATED (26_MnF.scfp) ****
             **** ENERGY FILE WAS UPDATED (26_MnF.en.tmp) ****
----------------------
UHF SPIN CONTAMINATION
----------------------

Warning: in a DFT calculation there is little theoretical justification to 
         calculate <S**2> as in Hartree-Fock theory. We will do it anyways
         but you should keep in mind that the values have only limited relevance

Expectation value of <S**2>     :    12.002831
Ideal value S*(S+1) for S=3.0   :    12.000000
Deviation                       :     0.002831

             **** THE GBW FILE WAS UPDATED (26_MnF.gbw) ****
             **** DENSITY FILE WAS UPDATED (26_MnF.scfp) ****
----------------
ORBITAL ENERGIES
----------------
                 SPIN UP ORBITALS
  NO   OCC          E(Eh)            E(eV) 
   0   1.0000    -234.717350     -6386.9838 
   1   1.0000     -27.016841      -735.1656 
   2   1.0000     -24.350599      -662.6135 
   3   1.0000     -23.104123      -628.6951 
   4   1.0000     -23.104123      -628.6951 
   5   1.0000     -23.099722      -628.5754 
   6   1.0000      -3.178983       -86.5045 
   7   1.0000      -2.065939       -56.2171 
   8   1.0000      -2.065939       -56.2171 
   9   1.0000      -2.054461       -55.9047 
  10   1.0000      -1.029124       -28.0039 
  11   1.0000      -0.380432       -10.3521 
  12   1.0000      -0.347519        -9.4565 
  13   1.0000      -0.347519        -9.4565 
  14   1.0000      -0.310719        -8.4551 
  15   1.0000      -0.310719        -8.4551 
  16   1.0000      -0.268794        -7.3142 
  17   1.0000      -0.268794        -7.3142 
  18   1.0000      -0.262759        -7.1500 
  19   1.0000      -0.174609        -4.7514 
  20   0.0000      -0.053963        -1.4684 
  21   0.0000      -0.053963        -1.4684 
  22   0.0000      -0.007401        -0.2014 
  23   0.0000      -0.001442        -0.0392 
  24   0.0000       0.022928         0.6239 
  25   0.0000       0.022928         0.6239 
  26   0.0000       0.042698         1.1619 
  27   0.0000       0.042746         1.1632 
  28   0.0000       0.042747         1.1632 
  29   0.0000       0.049261         1.3405 
  30   0.0000       0.049261         1.3405 
  31   0.0000       0.059120         1.6087 
  32   0.0000       0.089437         2.4337 
  33   0.0000       0.140014         3.8100 
  34   0.0000       0.140014         3.8100 
  35   0.0000       0.168603         4.5879 
  36   0.0000       0.202575         5.5124 
  37   0.0000       0.202575         5.5124 
  38   0.0000       0.216272         5.8851 
  39   0.0000       0.220163         5.9909 
  40   0.0000       0.220163         5.9909 
  41   0.0000       0.228409         6.2153 
  42   0.0000       0.228409         6.2153 
  43   0.0000       0.274812         7.4780 
  44   0.0000       0.395499        10.7621 
  45   0.0000       0.497755        13.5446 
  46   0.0000       0.578515        15.7422 
  47   0.0000       0.578521        15.7424 
  48   0.0000       0.610893        16.6232 
  49   0.0000       0.610893        16.6232 
  50   0.0000       0.623750        16.9731 
  51   0.0000       0.623750        16.9731 
  52   0.0000       0.717158        19.5149 
  53   0.0000       0.717158        19.5149 
  54   0.0000       0.721904        19.6440 
  55   0.0000       0.803663        21.8688 
  56   0.0000       0.803663        21.8688 
  57   0.0000       0.836481        22.7618 
  58   0.0000       0.838406        22.8142 
  59   0.0000       0.838408        22.8142 
  60   0.0000       0.894894        24.3513 
  61   0.0000       0.894894        24.3513 
  62   0.0000       0.934067        25.4172 
  63   0.0000       0.972238        26.4559 
  64   0.0000       0.972238        26.4559 
  65   0.0000       1.199531        32.6409 
  66   0.0000       1.317468        35.8501 
  67   0.0000       1.353856        36.8403 
  68   0.0000       1.353856        36.8403 
  69   0.0000       2.005075        54.5609 
  70   0.0000       2.005075        54.5609 
  71   0.0000       2.059553        56.0433 
  72   0.0000       2.059553        56.0433 
  73   0.0000       2.064970        56.1907 
  74   0.0000       2.064979        56.1909 
  75   0.0000       2.088011        56.8177 
  76   0.0000       2.203714        59.9661 
  77   0.0000       2.380283        64.7708 
  78   0.0000       2.380354        64.7727 
  79   0.0000       2.447098        66.5889 
  80   0.0000       2.479283        67.4647 
  81   0.0000       2.479283        67.4647 
  82   0.0000       2.495274        67.8999 
  83   0.0000       2.495274        67.8999 
  84   0.0000       2.548236        69.3410 
  85   0.0000       2.548236        69.3410 
  86   0.0000       2.552528        69.4578 
  87   0.0000       2.552543        69.4582 
  88   0.0000       2.600578        70.7653 
  89   0.0000       2.600586        70.7655 
  90   0.0000       2.686003        73.0899 
  91   0.0000       2.730977        74.3137 
  92   0.0000       2.730977        74.3137 
  93   0.0000       2.794903        76.0532 
  94   0.0000       2.948002        80.2192 
  95   0.0000       2.948002        80.2192 
  96   0.0000       3.138094        85.3919 
  97   0.0000       3.138160        85.3937 
  98   0.0000       3.174338        86.3781 
  99   0.0000       3.624006        98.6142 
 100   0.0000       3.624006        98.6142 
 101   0.0000       3.696453       100.5856 
 102   0.0000       3.696457       100.5857 
 103   0.0000       3.971101       108.0591 
 104   0.0000       4.008780       109.0844 
 105   0.0000       4.008780       109.0844 
 106   0.0000       4.537275       123.4655 
 107   0.0000       4.813771       130.9894 
 108   0.0000       4.813771       130.9894 
 109   0.0000       5.345417       145.4562 
 110   0.0000       7.224717       196.5945 
 111   0.0000       7.224717       196.5945 
 112   0.0000       7.239092       196.9857 
 113   0.0000       7.239096       196.9858 
 114   0.0000       7.321338       199.2237 
 115   0.0000       7.321338       199.2237 
 116   0.0000       7.501920       204.1376 
 117   0.0000       7.800726       212.2685 
 118   0.0000       7.800827       212.2713 
 119   0.0000       7.807141       212.4431 
 120   0.0000       7.807141       212.4431 
 121   0.0000       7.868049       214.1005 
 122   0.0000       7.868084       214.1015 
 123   0.0000       8.076976       219.7857 
 124   0.0000       8.076976       219.7857 
 125   0.0000       8.124434       221.0771 
 126   0.0000       8.359612       227.4766 
 127   0.0000       8.359612       227.4766 
 128   0.0000       8.493338       231.1155 
 129   0.0000       8.494345       231.1429 
 130   0.0000       8.711109       237.0413 
 131   0.0000       8.711428       237.0500 
 132   0.0000       8.772132       238.7018 
 133   0.0000       8.802478       239.5276 
 134   0.0000       8.802478       239.5276 
 135   0.0000       8.873921       241.4717 
 136   0.0000       8.873921       241.4717 
 137   0.0000       9.163025       249.3386 
 138   0.0000      13.989195       380.6653 

                 SPIN DOWN ORBITALS
  NO   OCC          E(Eh)            E(eV) 
   0   1.0000    -234.715472     -6386.9327 
   1   1.0000     -26.945740      -733.2309 
   2   1.0000     -24.344725      -662.4536 
   3   1.0000     -23.046122      -627.1169 
   4   1.0000     -23.046122      -627.1169 
   5   1.0000     -23.043096      -627.0345 
   6   1.0000      -2.989411       -81.3460 
   7   1.0000      -1.874704       -51.0133 
   8   1.0000      -1.874704       -51.0133 
   9   1.0000      -1.867018       -50.8042 
  10   1.0000      -1.016574       -27.6624 
  11   1.0000      -0.346240        -9.4217 
  12   1.0000      -0.314967        -8.5707 
  13   1.0000      -0.314967        -8.5707 
  14   0.0000      -0.134838        -3.6691 
  15   0.0000      -0.134807        -3.6683 
  16   0.0000      -0.130402        -3.5484 
  17   0.0000      -0.114923        -3.1272 
  18   0.0000      -0.114923        -3.1272 
  19   0.0000      -0.078172        -2.1272 
  20   0.0000      -0.001875        -0.0510 
  21   0.0000      -0.001875        -0.0510 
  22   0.0000       0.012270         0.3339 
  23   0.0000       0.023511         0.6398 
  24   0.0000       0.043294         1.1781 
  25   0.0000       0.043294         1.1781 
  26   0.0000       0.066611         1.8126 
  27   0.0000       0.072274         1.9667 
  28   0.0000       0.072296         1.9673 
  29   0.0000       0.073689         2.0052 
  30   0.0000       0.073691         2.0052 
  31   0.0000       0.078446         2.1346 
  32   0.0000       0.131740         3.5848 
  33   0.0000       0.185074         5.0361 
  34   0.0000       0.185075         5.0361 
  35   0.0000       0.202226         5.5029 
  36   0.0000       0.229911         6.2562 
  37   0.0000       0.229911         6.2562 
  38   0.0000       0.234431         6.3792 
  39   0.0000       0.251421         6.8415 
  40   0.0000       0.251696         6.8490 
  41   0.0000       0.272809         7.4235 
  42   0.0000       0.272809         7.4235 
  43   0.0000       0.305401         8.3104 
  44   0.0000       0.447721        12.1831 
  45   0.0000       0.545041        14.8313 
  46   0.0000       0.612650        16.6711 
  47   0.0000       0.613024        16.6812 
  48   0.0000       0.669470        18.2172 
  49   0.0000       0.669470        18.2172 
  50   0.0000       0.692240        18.8368 
  51   0.0000       0.692240        18.8368 
  52   0.0000       0.752108        20.4659 
  53   0.0000       0.752108        20.4659 
  54   0.0000       0.786531        21.4026 
  55   0.0000       0.866048        23.5664 
  56   0.0000       0.868055        23.6210 
  57   0.0000       0.868055        23.6210 
  58   0.0000       0.886978        24.1359 
  59   0.0000       0.887194        24.1418 
  60   0.0000       0.963779        26.2258 
  61   0.0000       0.963814        26.2267 
  62   0.0000       0.969612        26.3845 
  63   0.0000       0.988614        26.9016 
  64   0.0000       0.988614        26.9016 
  65   0.0000       1.254470        34.1359 
  66   0.0000       1.326053        36.0837 
  67   0.0000       1.397527        38.0286 
  68   0.0000       1.397527        38.0286 
  69   0.0000       2.079372        56.5826 
  70   0.0000       2.079372        56.5826 
  71   0.0000       2.169231        59.0278 
  72   0.0000       2.171490        59.0893 
  73   0.0000       2.171618        59.0927 
  74   0.0000       2.181514        59.3620 
  75   0.0000       2.181514        59.3620 
  76   0.0000       2.250695        61.2445 
  77   0.0000       2.427323        66.0508 
  78   0.0000       2.427393        66.0527 
  79   0.0000       2.530652        68.8625 
  80   0.0000       2.530652        68.8625 
  81   0.0000       2.561310        69.6968 
  82   0.0000       2.561310        69.6968 
  83   0.0000       2.571186        69.9655 
  84   0.0000       2.614486        71.1438 
  85   0.0000       2.614490        71.1439 
  86   0.0000       2.640552        71.8531 
  87   0.0000       2.640555        71.8532 
  88   0.0000       2.667319        72.5814 
  89   0.0000       2.667319        72.5814 
  90   0.0000       2.745762        74.7160 
  91   0.0000       2.774696        75.5033 
  92   0.0000       2.774696        75.5033 
  93   0.0000       2.871392        78.1346 
  94   0.0000       2.980593        81.1061 
  95   0.0000       2.980593        81.1061 
  96   0.0000       3.184393        86.6518 
  97   0.0000       3.184446        86.6532 
  98   0.0000       3.257584        88.6434 
  99   0.0000       3.704127       100.7944 
 100   0.0000       3.704127       100.7944 
 101   0.0000       3.848439       104.7214 
 102   0.0000       3.848480       104.7225 
 103   0.0000       4.014799       109.2482 
 104   0.0000       4.123259       112.1996 
 105   0.0000       4.123259       112.1996 
 106   0.0000       4.640099       126.2635 
 107   0.0000       4.826533       131.3366 
 108   0.0000       4.826533       131.3366 
 109   0.0000       5.389654       146.6599 
 110   0.0000       7.444787       202.5829 
 111   0.0000       7.444787       202.5829 
 112   0.0000       7.461518       203.0382 
 113   0.0000       7.461534       203.0387 
 114   0.0000       7.530765       204.9225 
 115   0.0000       7.530765       204.9225 
 116   0.0000       7.695026       209.3923 
 117   0.0000       7.952180       216.3898 
 118   0.0000       7.952251       216.3918 
 119   0.0000       7.957296       216.5290 
 120   0.0000       7.957296       216.5290 
 121   0.0000       8.007374       217.8917 
 122   0.0000       8.007429       217.8932 
 123   0.0000       8.214718       223.5338 
 124   0.0000       8.214718       223.5338 
 125   0.0000       8.241579       224.2648 
 126   0.0000       8.372909       227.8384 
 127   0.0000       8.372909       227.8384 
 128   0.0000       8.515889       231.7291 
 129   0.0000       8.516806       231.7541 
 130   0.0000       8.726251       237.4534 
 131   0.0000       8.726588       237.4625 
 132   0.0000       8.806067       239.6253 
 133   0.0000       8.820725       240.0241 
 134   0.0000       8.820725       240.0241 
 135   0.0000       8.903081       242.2651 
 136   0.0000       8.903081       242.2651 
 137   0.0000       9.203553       250.4414 
 138   0.0000      14.007642       381.1673 

                    ********************************
                    * MULLIKEN POPULATION ANALYSIS *
                    ********************************

--------------------------------------------
MULLIKEN ATOMIC CHARGES AND SPIN POPULATIONS
--------------------------------------------
   0 Mn:    0.586101    5.846603
   1 F :   -0.586101    0.153397
Sum of atomic charges         :    0.0000000
Sum of atomic spin populations:    6.0000000

-----------------------------------------------------
MULLIKEN REDUCED ORBITAL CHARGES AND SPIN POPULATIONS
-----------------------------------------------------
CHARGE
  0 Mns       :     6.928736  s :     6.928736
      pz      :     4.215524  p :    12.282523
      px      :     4.033500
      py      :     4.033500
      dz2     :     1.071302  d :     5.183316
      dxz     :     1.056224
      dyz     :     1.056224
      dx2y2   :     0.999783
      dxy     :     0.999783
      f0      :     0.007308  f :     0.016106
      f+1     :     0.004371
      f-1     :     0.004371
      f+2     :     0.000028
      f-2     :     0.000028
      f+3     :     0.000000
      f-3     :     0.000000
      g0      :     0.001645  g :     0.003218
      g+1     :     0.000784
      g-1     :     0.000784
      g+2     :     0.000002
      g-2     :     0.000002
      g+3     :     0.000000
      g-3     :     0.000000
      g+4     :     0.000000
      g-4     :     0.000000
  1 F s       :     3.991647  s :     3.991647
      pz      :     1.781001  p :     5.582337
      px      :     1.900668
      py      :     1.900668
      dz2     :     0.002231  d :     0.010602
      dxz     :     0.004038
      dyz     :     0.004038
      dx2y2   :     0.000148
      dxy     :     0.000148
      f0      :     0.000606  f :     0.001515
      f+1     :     0.000416
      f-1     :     0.000416
      f+2     :     0.000038
      f-2     :     0.000038
      f+3     :     0.000000
      f-3     :     0.000000

SPIN
  0 Mns       :     0.863723  s :     0.863723
      pz      :     0.185667  p :     0.213603
      px      :     0.013968
      py      :     0.013968
      dz2     :     0.884227  d :     4.767198
      dxz     :     0.941702
      dyz     :     0.941702
      dx2y2   :     0.999783
      dxy     :     0.999783
      f0      :     0.000396  f :     0.002169
      f+1     :     0.000858
      f-1     :     0.000858
      f+2     :     0.000028
      f-2     :     0.000028
      f+3     :    -0.000000
      f-3     :    -0.000000
      g0      :    -0.000064  g :    -0.000090
      g+1     :    -0.000015
      g-1     :    -0.000015
      g+2     :     0.000002
      g-2     :     0.000002
      g+3     :     0.000000
      g-3     :     0.000000
      g+4     :    -0.000000
      g-4     :     0.000000
  1 F s       :     0.003686  s :     0.003686
      pz      :     0.062123  p :     0.150321
      px      :     0.044099
      py      :     0.044099
      dz2     :     0.000102  d :    -0.000905
      dxz     :    -0.000652
      dyz     :    -0.000652
      dx2y2   :     0.000148
      dxy     :     0.000148
      f0      :     0.000139  f :     0.000295
      f+1     :     0.000039
      f-1     :     0.000039
      f+2     :     0.000038
      f-2     :     0.000038
      f+3     :     0.000000
      f-3     :     0.000000


                     *******************************
                     * LOEWDIN POPULATION ANALYSIS *
                     *******************************

-------------------------------------------
LOEWDIN ATOMIC CHARGES AND SPIN POPULATIONS
-------------------------------------------
   0 Mn:    0.417313    5.719274
   1 F :   -0.417313    0.280726

----------------------------------------------------
LOEWDIN REDUCED ORBITAL CHARGES AND SPIN POPULATIONS
----------------------------------------------------
CHARGE
  0 Mns       :     6.720249  s :     6.720249
      pz      :     4.302667  p :    12.385182
      px      :     4.041258
      py      :     4.041258
      dz2     :     1.145068  d :     5.261464
      dxz     :     1.060657
      dyz     :     1.060657
      dx2y2   :     0.997541
      dxy     :     0.997541
      f0      :     0.085446  f :     0.190834
      f+1     :     0.052584
      f-1     :     0.052584
      f+2     :     0.000111
      f-2     :     0.000111
      f+3     :     0.000000
      f-3     :     0.000000
      g0      :     0.012615  g :     0.024958
      g+1     :     0.006152
      g-1     :     0.006152
      g+2     :     0.000019
      g-2     :     0.000019
      g+3     :     0.000000
      g-3     :     0.000000
      g+4     :     0.000000
      g-4     :     0.000000
  1 F s       :     3.740416  s :     3.740416
      pz      :     1.884987  p :     5.482882
      px      :     1.798947
      py      :     1.798947
      dz2     :     0.091971  d :     0.161980
      dxz     :     0.033294
      dyz     :     0.033294
      dx2y2   :     0.001711
      dxy     :     0.001711
      f0      :     0.016582  f :     0.032036
      f+1     :     0.007108
      f-1     :     0.007108
      f+2     :     0.000619
      f-2     :     0.000619
      f+3     :     0.000000
      f-3     :     0.000000

SPIN
  0 Mns       :     0.756762  s :     0.756762
      pz      :     0.239276  p :     0.282049
      px      :     0.021386
      py      :     0.021386
      dz2     :     0.856406  d :     4.661911
      dxz     :     0.905212
      dyz     :     0.905212
      dx2y2   :     0.997541
      dxy     :     0.997541
      f0      :     0.003671  f :     0.015697
      f+1     :     0.005902
      f-1     :     0.005902
      f+2     :     0.000111
      f-2     :     0.000111
      f+3     :    -0.000000
      f-3     :    -0.000000
      g0      :     0.001072  g :     0.002855
      g+1     :     0.000872
      g-1     :     0.000872
      g+2     :     0.000019
      g-2     :     0.000019
      g+3     :     0.000000
      g-3     :     0.000000
      g+4     :    -0.000000
      g-4     :     0.000000
  1 F s       :     0.032561  s :     0.032561
      pz      :     0.099813  p :     0.183384
      px      :     0.041786
      py      :     0.041786
      dz2     :     0.006682  d :     0.049282
      dxz     :     0.019589
      dyz     :     0.019589
      dx2y2   :     0.001711
      dxy     :     0.001711
      f0      :     0.003756  f :     0.015498
      f+1     :     0.005252
      f-1     :     0.005252
      f+2     :     0.000619
      f-2     :     0.000619
      f+3     :     0.000000
      f-3     :     0.000000


                      *****************************
                      * MAYER POPULATION ANALYSIS *
                      *****************************

  NA   - Mulliken gross atomic population
  ZA   - Total nuclear charge
  QA   - Mulliken gross atomic charge
  VA   - Mayer's total valence
  BVA  - Mayer's bonded valence
  FA   - Mayer's free valence

  ATOM       NA         ZA         QA         VA         BVA        FA
  0 Mn    24.4139    25.0000     0.5861     6.4071     0.7569     5.6502
  1 F      9.5861     9.0000    -0.5861     0.7671     0.7569     0.0103

  Mayer bond orders larger than 0.100000
B(  0-Mn,  1-F ) :   0.7569 

-------
TIMINGS
-------

Total SCF time: 0 days 0 hours 0 min 2 sec 

Total time                  ....       2.674 sec
Sum of individual times     ....       2.539 sec  ( 94.9%)

Fock matrix formation       ....       2.186 sec  ( 81.7%)
  Split-RI-J                ....       1.581 sec  ( 72.3% of F)
  XC integration            ....       0.529 sec  ( 24.2% of F)
    Basis function eval.    ....       0.059 sec  ( 11.1% of XC)
    Density eval.           ....       0.060 sec  ( 11.4% of XC)
    XC-Functional eval.     ....       0.016 sec  (  3.0% of XC)
    XC-Potential eval.      ....       0.170 sec  ( 32.2% of XC)
Diagonalization             ....       0.058 sec  (  2.2%)
Density matrix formation    ....       0.008 sec  (  0.3%)
Population analysis         ....       0.007 sec  (  0.3%)
Initial guess               ....       0.115 sec  (  4.3%)
Orbital Transformation      ....       0.000 sec  (  0.0%)
Orbital Orthonormalization  ....       0.000 sec  (  0.0%)
DIIS solution               ....       0.020 sec  (  0.8%)
Grid generation             ....       0.145 sec  (  5.4%)


-------------------------------------------------------------------------------
                          DFT DISPERSION CORRECTION                            
                                                                               
                              DFTD3 V3.1  Rev 1                                
                          USING Becke-Johnson damping                          
-------------------------------------------------------------------------------
The TPSS functional is recognized
Active option DFTDOPT                   ...         4   

molecular C6(AA) [au] = 361.386732 


            DFT-D V3
 parameters
 s6 scaling factor         :     1.0000 
 a1 scaling factor         :     0.4535 
 s8 scaling factor         :     1.9435 
 a2 scaling factor         :     4.4752 
 ad hoc parameters k1-k3   :    16.0000     1.3333    -4.0000 

 Edisp/kcal,au: -0.344668263076  -0.000549263781 
 E6   /kcal   :  -0.138527196 
 E8   /kcal   :  -0.206141067 
 % E8         :  59.808543235 

-------------------------   ----------------
Dispersion correction           -0.000549264
-------------------------   ----------------


-------------------------   --------------------
FINAL SINGLE POINT ENERGY     -1250.977654724895
-------------------------   --------------------


                            ***************************************
                            *     ORCA property calculations      *
                            ***************************************

                                    ---------------------
                                    Active property flags
                                    ---------------------
   (+) Dipole Moment


------------------------------------------------------------------------------
                       ORCA ELECTRIC PROPERTIES CALCULATION
------------------------------------------------------------------------------

Dipole Moment Calculation                       ... on
Quadrupole Moment Calculation                   ... off
Polarizability Calculation                      ... off
GBWName                                         ... 26_MnF.gbw
Electron density file                           ... 26_MnF.scfp
The origin for moment calculation is the CENTER OF MASS  = ( 0.000000,  0.000000  1.050021)

-------------
DIPOLE MOMENT
-------------
                                X             Y             Z
Electronic contribution:     -0.00000      -0.00000      -1.71980
Nuclear contribution   :      0.00000       0.00000       0.91162
                        -----------------------------------------
Total Dipole Moment    :     -0.00000      -0.00000      -0.80819
                        -----------------------------------------
Magnitude (a.u.)       :      0.80819
Magnitude (Debye)      :      2.05425



--------------------
Rotational spectrum 
--------------------
 
Rotational constants in cm-1:     0.000000     0.357290     0.357290 
Rotational constants in MHz :     0.000000 10711.297675 10711.297675 

 Dipole components along the rotational axes: 
x,y,z [a.u.] :    -0.808188    -0.000000    -0.000000 
x,y,z [Debye]:    -2.054250    -0.000000    -0.000000 

 

Timings for individual modules:

Sum of individual times         ...        6.226 sec (=   0.104 min)
GTO integral calculation        ...        3.211 sec (=   0.054 min)  51.6 %
SCF iterations                  ...        3.015 sec (=   0.050 min)  48.4 %
                             ****ORCA TERMINATED NORMALLY****
TOTAL RUN TIME: 0 days 0 hours 0 minutes 6 seconds 930 msec
