
                                 *****************
                                 * O   R   C   A *
                                 *****************

           --- An Ab Initio, DFT and Semiempirical electronic structure package ---

                  #######################################################
                  #                        -***-                        #
                  #          Department of theory and spectroscopy      #
                  #               Directorship: Frank Neese             #
                  #        Max Planck Institute fuer Kohlenforschung    #
                  #                Kaiser Wilhelm Platz 1               #
                  #                 D-45470 Muelheim/Ruhr               #
                  #                      Germany                        #
                  #                                                     #
                  #                  All rights reserved                #
                  #                        -***-                        #
                  #######################################################


                         Program Version 4.2.0 -  RELEASE  -


 With contributions from (in alphabetic order):
   Daniel Aravena         : Magnetic Suceptibility
   Michael Atanasov       : Ab Initio Ligand Field Theory (pilot matlab implementation)
   Alexander A. Auer      : GIAO ZORA, VPT2
   Ute Becker             : Parallelization
   Giovanni Bistoni       : ED, misc. LED, open-shell LED, HFLED
   Martin Brehm           : Molecular dynamics
   Dmytro Bykov           : SCF Hessian
   Vijay G. Chilkuri      : MRCI spin determinant printing, contributions to CSF-ICE
   Dipayan Datta          : RHF DLPNO-CCSD density
   Achintya Kumar Dutta   : EOM-CC, STEOM-CC
   Dmitry Ganyushin       : Spin-Orbit,Spin-Spin,Magnetic field MRCI
   Miquel Garcia          : C-PCM Hessian, Gaussian charge scheme
   Yang Guo               : DLPNO-NEVPT2, CIM, IAO-localization
   Andreas Hansen         : Spin unrestricted coupled pair/coupled cluster methods
   Benjamin Helmich-Paris : CASSCF linear response (MC-RPA)
   Lee Huntington         : MR-EOM, pCC
   Robert Izsak           : Overlap fitted RIJCOSX, COSX-SCS-MP3, EOM
   Christian Kollmar      : KDIIS, OOCD, Brueckner-CCSD(T), CCSD density
   Simone Kossmann        : Meta GGA functionals, TD-DFT gradient, OOMP2, MP2 Hessian
   Martin Krupicka        : AUTO-CI
   Lucas Lang             : DCDCAS
   Dagmar Lenk            : GEPOL surface, SMD
   Dimitrios Liakos       : Extrapolation schemes; Compound Job, initial MDCI parallelization
   Dimitrios Manganas     : Further ROCIS development; embedding schemes
   Dimitrios Pantazis     : SARC Basis sets
   Taras Petrenko         : DFT Hessian,TD-DFT gradient, ASA, ECA, R-Raman, ABS, FL, XAS/XES, NRVS
   Peter Pinski           : DLPNO-MP2, DLPNO-MP2 Gradient
   Christoph Reimann      : Effective Core Potentials
   Marius Retegan         : Local ZFS, SOC
   Christoph Riplinger    : Optimizer, TS searches, QM/MM, DLPNO-CCSD(T), (RO)-DLPNO pert. Triples
   Tobias Risthaus        : Range-separated hybrids, TD-DFT gradient, RPA, STAB
   Michael Roemelt        : Original ROCIS implementation
   Masaaki Saitow         : Open-shell DLPNO-CCSD energy and density
   Barbara Sandhoefer     : DKH picture change effects
   Avijit Sen             : IP-ROCIS
   Kantharuban Sivalingam : CASSCF convergence, NEVPT2, FIC-MRCI
   Bernardo de Souza      : ESD, SOC TD-DFT
   Georgi Stoychev        : AutoAux, RI-MP2 NMR
   Willem Van den Heuvel  : Paramagnetic NMR
   Boris Wezisla          : Elementary symmetry handling
   Frank Wennmohs         : Technical directorship


 We gratefully acknowledge several colleagues who have allowed us to
 interface, adapt or use parts of their codes:
   Stefan Grimme, W. Hujo, H. Kruse,             : VdW corrections, initial TS optimization,
                  C. Bannwarth                     DFT functionals, gCP, sTDA/sTD-DF
   Ed Valeev, F. Pavosevic, A. Kumar             : LibInt (2-el integral package), F12 methods
   Garnet Chan, S. Sharma, J. Yang, R. Olivares  : DMRG
   Ulf Ekstrom                                   : XCFun DFT Library
   Mihaly Kallay                                 : mrcc  (arbitrary order and MRCC methods)
   Andreas Klamt, Michael Diedenhofen            : otool_cosmo (COSMO solvation model)
   Jiri Pittner, Ondrej Demel                    : Mk-CCSD
   Frank Weinhold                                : gennbo (NPA and NBO analysis)
   Christopher J. Cramer and Donald G. Truhlar   : smd solvation model
   Lars Goerigk                                  : TD-DFT with DH, B97 family of functionals
   V. Asgeirsson, H. Jonsson                     : NEB implementation
   FAccTs GmbH                                   : IRC, NEB, NEB-TS, Multilevel, MM, QM/MM, CI optimization
   S Lehtola, MJT Oliveira, MAL Marques          : LibXC Library


 Your calculation uses the libint2 library for the computation of 2-el integrals
 For citations please refer to: http://libint.valeyev.net

 Your ORCA version has been built with support for libXC version: 4.2.3
 For citations please refer to: https://tddft.org/programs/libxc/

 This ORCA versions uses:
   CBLAS   interface :  Fast vector & matrix operations
   LAPACKE interface :  Fast linear algebra routines
   SCALAPACK package :  Parallel linear algebra routines


Your calculation utilizes the atom-pairwise dispersion correction
with the Becke-Johnson damping scheme (D3BJ)
Cite in your paper:
S.Grimme, S.Ehrlich, L.Goerigk, J Comput Chem, (2011), 32, 1456–1465 
S.Grimme, J.Antony, S.Ehrlich and H.Krieg, J.Chem.Phys., 132, (2010), 154104 
   

----- Orbital basis set information -----
Your calculation utilizes the basis: aug-cc-pVTZ 
    H, B-Ne : Obtained from the ccRepo (grant-hill.group.shef.ac.uk/ccrepo) Feb. 2017
              R. A. Kendall, T. H. Dunning, Jr., R. J. Harrison, J. Chem. Phys. 96, 6796 (1992)
         He : Obtained from the ccRepo (grant-hill.group.shef.ac.uk/ccrepo) Feb. 2017
              D. E. Woon, T. H. Dunning, Jr., J. Chem. Phys. 100, 2975 (1994)
  Li-Be, Na : Obtained from the ccRepo (grant-hill.group.shef.ac.uk/ccrepo) Feb. 2017
              B. P. Prascher, D. E. Woon, K. A. Peterson, T. H. Dunning, Jr., A. K. Wilson, Theor. Chem. Acc. 128, 69 (2011)
         Mg : Obtained from the Peterson Research Group Website (tyr0.chem.wsu.edu/~kipeters) Feb. 2017
              B. P. Prascher, D. E. Woon, K. A. Peterson, T. H. Dunning, Jr., A. K. Wilson, Theor. Chem. Acc. 128, 69 (2011)
      Al-Ar : Obtained from the ccRepo (grant-hill.group.shef.ac.uk/ccrepo) Feb. 2017
              D. E. Woon, T. H. Dunning, Jr., J. Chem. Phys. 98, 1358 (1993)
      Sc-Zn : Obtained from the ccRepo (grant-hill.group.shef.ac.uk/ccrepo) Feb. 2017
              N. B. Balabanov, K. A. Peterson, J. Chem. Phys. 123, 064107 (2005)
              N. B. Balabanov, K. A. Peterson, J. Chem. Phys. 125, 074110 (2006)
      Ga-Kr : Obtained from the ccRepo (grant-hill.group.shef.ac.uk/ccrepo) Feb. 2017
              A. K. Wilson, D. E. Woon, K. A. Peterson, T. H. Dunning, Jr., J. Chem. Phys. 110, 7667 (1999)
     Ag, Au : Obtained from the Peterson Research Group Website (tyr0.chem.wsu.edu/~kipeters) Feb. 2017
              K. A. Peterson, C. Puzzarini, Theor. Chem. Acc. 114, 283 (2005)

----- AuxJ basis set information -----
Your calculation utilizes the auxiliary basis: def2/J
   F. Weigend, Phys. Chem. Chem. Phys. 8, 1057 (2006).

================================================================================
                                        WARNINGS
                       Please study these warnings very carefully!
================================================================================


WARNING: your system is open-shell and RHF/RKS was chosen
  ===> : WILL SWITCH to UHF/UKS


INFO   : the flag for use of LIBINT has been found!

================================================================================
                                       INPUT FILE
================================================================================
NAME = 32_FeF.in
|  1> #
|  2> # 32_FeF tpss/aug-cc-pvtz
|  3> #
|  4> ! tpss d3bj aug-cc-pvtz def2/j grid4 nofinalgrid
|  5> 
|  6> *xyz 0 6
|  7>   Fe  0.00000000000000      0.00000000000000      0.10964273788681
|  8>   F   0.00000000000000      0.00000000000000      1.89035726211319
|  9> *
| 10> 
| 11> %pal
| 12> nprocs 24
| 13> end
| 14> 
| 15> 
| 16>                          ****END OF INPUT****
================================================================================

                       ****************************
                       * Single Point Calculation *
                       ****************************

---------------------------------
CARTESIAN COORDINATES (ANGSTROEM)
---------------------------------
  Fe     0.000000    0.000000    0.109643
  F      0.000000    0.000000    1.890357

----------------------------
CARTESIAN COORDINATES (A.U.)
----------------------------
  NO LB      ZA    FRAG     MASS         X           Y           Z
   0 Fe   26.0000    0    55.850    0.000000    0.000000    0.207195
   1 F     9.0000    0    18.998    0.000000    0.000000    3.572258

--------------------------------
INTERNAL COORDINATES (ANGSTROEM)
--------------------------------
 Fe     0   0   0     0.000000000000     0.00000000     0.00000000
 F      1   0   0     1.780714524226     0.00000000     0.00000000

---------------------------
INTERNAL COORDINATES (A.U.)
---------------------------
 Fe     0   0   0     0.000000000000     0.00000000     0.00000000
 F      1   0   0     3.365062773484     0.00000000     0.00000000

---------------------
BASIS SET INFORMATION
---------------------
There are 2 groups of distinct atoms

 Group   1 Type Fe  : 116s77p23d3f2g contracted to 8s7p5d3f2g pattern {19191919191911/151515151511/77711/111/11}
 Group   2 Type F   : 19s6p3d2f contracted to 5s4p3d2f pattern {88111/3111/111/11}

Atom   0Fe   basis set group =>   1
Atom   1F    basis set group =>   2
---------------------------------
AUXILIARY/J BASIS SET INFORMATION
---------------------------------
There are 2 groups of distinct atoms

 Group   1 Type Fe  : 19s5p5d3f3g contracted to 8s5p5d2f3g pattern {121111111/11111/11111/21/111}
 Group   2 Type F   : 12s5p4d2f1g contracted to 6s4p3d1f1g pattern {711111/2111/211/2/1}

Atom   0Fe   basis set group =>   1
Atom   1F    basis set group =>   2


           ************************************************************
           *        Program running with 24 parallel MPI-processes    *
           *              working on a common directory               *
           ************************************************************
------------------------------------------------------------------------------
                           ORCA GTO INTEGRAL CALCULATION
                           -- RI-GTO INTEGRALS CHOSEN --
------------------------------------------------------------------------------

                         BASIS SET STATISTICS AND STARTUP INFO

Gaussian basis set:
 # of primitive gaussian shells          ...  251
 # of primitive gaussian functions       ...  567
 # of contracted shells                  ...   39
 # of contracted basis functions         ...  139
 Highest angular momentum                ...    4
 Maximum contraction depth               ...   19
Auxiliary gaussian basis set:
 # of primitive gaussian shells          ...   59
 # of primitive gaussian functions       ...  177
 # of contracted shells                  ...   38
 # of contracted aux-basis functions     ...  138
 Highest angular momentum                ...    4
 Maximum contraction depth               ...   12
Ratio of auxiliary to basis functions    ...  0.99
Integral package used                  ... LIBINT
 One Electron integrals                  ... done
 Ordering auxiliary basis shells         ... done
 Integral threshhold             Thresh  ...  1.000e-10
 Primitive cut-off               TCut    ...  1.000e-11
 Pre-screening matrix                    ... done
 Shell pair data                         ... 
 Ordering of the shell pairs             ... done (   0.000 sec) 780 of 780 pairs
 Determination of significant pairs      ... done (   0.000 sec)
 Creation of shell pair data             ... done (   0.001 sec)
 Storage of shell pair data              ... done (   0.177 sec)
 Shell pair data done in (   0.179 sec)
 Computing two index integrals           ... done
 Cholesky decomposition of the V-matrix  ... done


Timings:
 Total evaluation time                   ...   2.750 sec (  0.046 min)
 One electron matrix time                ...   0.039 sec (  0.001 min) =  1.4%
 Schwartz matrix evaluation time         ...   2.501 sec (  0.042 min) = 91.0%
 Two index repulsion integral time       ...   0.002 sec (  0.000 min) =  0.1%
 Cholesky decomposition of V             ...   0.001 sec (  0.000 min) =  0.0%
 Three index repulsion integral time     ...   0.000 sec (  0.000 min) =  0.0%



           ************************************************************
           *        Program running with 24 parallel MPI-processes    *
           *              working on a common directory               *
           ************************************************************
-------------------------------------------------------------------------------
                                 ORCA SCF
-------------------------------------------------------------------------------

------------
SCF SETTINGS
------------
Hamiltonian:
 Density Functional     Method          .... DFT(GTOs)
 Exchange Functional    Exchange        .... TPSS
 Correlation Functional Correlation     .... TPSS
 LDA part of GGA corr.  LDAOpt          .... PW91-LDA
 Gradients option       PostSCFGGA      .... off
   Density functional embedding theory  .... OFF
   NL short-range parameter             ....  5.000000
 RI-approximation to the Coulomb term is turned on
   Number of auxiliary basis functions  .... 138


General Settings:
 Integral files         IntName         .... 32_FeF
 Hartree-Fock type      HFTyp           .... UHF
 Total Charge           Charge          ....    0
 Multiplicity           Mult            ....    6
 Number of Electrons    NEL             ....   35
 Basis Dimension        Dim             ....  139
 Nuclear Repulsion      ENuc            ....     69.5380787080 Eh

Convergence Acceleration:
 DIIS                   CNVDIIS         .... on
   Start iteration      DIISMaxIt       ....    12
   Startup error        DIISStart       ....  0.200000
   # of expansion vecs  DIISMaxEq       ....     5
   Bias factor          DIISBfac        ....   1.050
   Max. coefficient     DIISMaxC        ....  10.000
 Newton-Raphson         CNVNR           .... off
 SOSCF                  CNVSOSCF        .... off
 Level Shifting         CNVShift        .... on
   Level shift para.    LevelShift      ....    0.2500
   Turn off err/grad.   ShiftErr        ....    0.0010
 Zerner damping         CNVZerner       .... off
 Static damping         CNVDamp         .... on
   Fraction old density DampFac         ....    0.7000
   Max. Damping (<1)    DampMax         ....    0.9800
   Min. Damping (>=0)   DampMin         ....    0.0000
   Turn off err/grad.   DampErr         ....    0.1000
 Fernandez-Rico         CNVRico         .... off

SCF Procedure:
 Maximum # iterations   MaxIter         ....   125
 SCF integral mode      SCFMode         .... Direct
   Integral package                     .... LIBINT
 Reset frequency        DirectResetFreq ....    20
 Integral Threshold     Thresh          ....  1.000e-10 Eh
 Primitive CutOff       TCut            ....  1.000e-11 Eh

Convergence Tolerance:
 Convergence Check Mode ConvCheckMode   .... Total+1el-Energy
 Convergence forced     ConvForced      .... 0
 Energy Change          TolE            ....  1.000e-06 Eh
 1-El. energy change                    ....  1.000e-03 Eh
 DIIS Error             TolErr          ....  1.000e-06


Diagonalization of the overlap matrix:
Smallest eigenvalue                        ... 9.071e-05
Time for diagonalization                   ...    0.006 sec
Threshold for overlap eigenvalues          ... 1.000e-08
Number of eigenvalues below threshold      ... 0
Time for construction of square roots      ...    0.003 sec
Total time needed                          ...    0.009 sec

-------------------
DFT GRID GENERATION
-------------------

General Integration Accuracy     IntAcc      ...  4.670
Radial Grid Type                 RadialGrid  ... Gauss-Chebyshev
Angular Grid (max. acc.)         AngularGrid ... Lebedev-302
Angular grid pruning method      GridPruning ... 3 (G Style)
Weight generation scheme         WeightScheme... Becke
Basis function cutoff            BFCut       ...    1.0000e-10
Integration weight cutoff        WCut        ...    1.0000e-14
Grids for H and He will be reduced by one unit

# of grid points (after initial pruning)     ...  15912 (   0.0 sec)
# of grid points (after weights+screening)   ...  15863 (   0.0 sec)
nearest neighbour list constructed           ...    0.0 sec
Grid point re-assignment to atoms done       ...    0.0 sec
Grid point division into batches done        ...    0.1 sec
Reduced shell lists constructed in    0.1 sec

Total number of grid points                  ...    15863
Total number of batches                      ...      249
Average number of points per batch           ...       63
Average number of grid points per atom       ...     7932
Average number of shells per batch           ...    14.33 (36.75%)
Average number of basis functions per batch  ...    34.17 (24.58%)
Average number of large shells per batch     ...     7.42 (51.74%)
Average number of large basis fcns per batch ...    18.75 (54.88%)
Maximum spatial batch extension              ...  28.57, 31.41, 18.49 au
Average spatial batch extension              ...   0.89,  0.95,  0.67 au

Time for grid setup =    0.155 sec

------------------------------
INITIAL GUESS: MODEL POTENTIAL
------------------------------
Loading Hartree-Fock densities                     ... done
Calculating cut-offs                               ... done
Setting up the integral package                    ... done
Initializing the effective Hamiltonian             ... done
Starting the Coulomb interaction                   ... done (   0.0 sec)
Reading the grid                                   ... done
Mapping shells                                     ... done
Starting the XC term evaluation                    ... done (   0.0 sec)
  promolecular density results
     # of electrons  =     34.999991727
     EX              =    -64.049736230
     EC              =     -1.448763918
     EX+EC           =    -65.498500148
Transforming the Hamiltonian                       ... done (   0.0 sec)
Diagonalizing the Hamiltonian                      ... done (   0.0 sec)
Back transforming the eigenvectors                 ... done (   0.0 sec)
Now organizing SCF variables                       ... done
                      ------------------
                      INITIAL GUESS DONE (   0.3 sec)
                      ------------------
--------------
SCF ITERATIONS
--------------
ITER       Energy         Delta-E        Max-DP      RMS-DP      [F,P]     Damp
               ***  Starting incremental Fock matrix formation  ***
  0  -1363.5944169335   0.000000000000 0.07332086  0.00108650  0.2715827 0.7000
  1  -1363.6261403964  -0.031723462946 0.02574488  0.00052037  0.0782161 0.7000
                               ***Turning on DIIS***
  2  -1363.6351270696  -0.008986673151 0.07336254  0.00110248  0.0513078 0.0000
  3  -1363.6600289893  -0.024901919764 0.00916153  0.00018481  0.1217413 0.7000
  4  -1363.6638301890  -0.003801199632 0.01901300  0.00044557  0.0977299 0.0000
  5  -1363.6722691633  -0.008438974333 0.00827047  0.00017249  0.0498364 0.0000
  6  -1363.6739664231  -0.001697259822 0.00884902  0.00013517  0.0330808 0.0000
  7  -1363.6756878087  -0.001721385607 0.00517693  0.00008628  0.0141539 0.0000
  8  -1363.6760255817  -0.000337773000 0.00324021  0.00004451  0.0027520 0.0000
  9  -1363.6760399982  -0.000014416494 0.00161510  0.00001987  0.0021665 0.0000
 10  -1363.6760414786  -0.000001480390 0.00111007  0.00001476  0.0008496 0.0000
 11  -1363.6760424126  -0.000000934003 0.00017198  0.00000229  0.0000272 0.0000
                 **** Energy Check signals convergence ****

               *****************************************************
               *                     SUCCESS                       *
               *           SCF CONVERGED AFTER  12 CYCLES          *
               *****************************************************


----------------
TOTAL SCF ENERGY
----------------

Total Energy       :        -1363.67604231 Eh          -37107.51162 eV

Components:
Nuclear Repulsion  :           69.53807871 Eh            1892.22732 eV
Electronic Energy  :        -1433.21412102 Eh          -38999.73894 eV
One Electron Energy:        -2023.49437325 Eh          -55062.08120 eV
Two Electron Energy:          590.28025224 Eh           16062.34226 eV

Virial components:
Potential Energy   :        -2725.14362856 Eh          -74154.92810 eV
Kinetic Energy     :         1361.46758625 Eh           37047.41648 eV
Virial Ratio       :            2.00162211


DFT components:
N(Alpha)           :       20.000013851168 electrons
N(Beta)            :       15.000013745824 electrons
N(Total)           :       35.000027596992 electrons
E(X)               :      -64.728839276476 Eh       
E(C)               :       -1.436887894491 Eh       
E(XC)              :      -66.165727170968 Eh       
DFET-embed. en.    :        0.000000000000 Eh       

---------------
SCF CONVERGENCE
---------------

  Last Energy change         ...    1.0223e-07  Tolerance :   1.0000e-06
  Last MAX-Density change    ...    3.2900e-05  Tolerance :   1.0000e-05
  Last RMS-Density change    ...    3.5468e-07  Tolerance :   1.0000e-06
  Last DIIS Error            ...    2.0824e-05  Tolerance :   1.0000e-06

             **** THE GBW FILE WAS UPDATED (32_FeF.gbw) ****
             **** DENSITY FILE WAS UPDATED (32_FeF.scfp) ****
             **** ENERGY FILE WAS UPDATED (32_FeF.en.tmp) ****
----------------------
UHF SPIN CONTAMINATION
----------------------

Warning: in a DFT calculation there is little theoretical justification to 
         calculate <S**2> as in Hartree-Fock theory. We will do it anyways
         but you should keep in mind that the values have only limited relevance

Expectation value of <S**2>     :     8.752250
Ideal value S*(S+1) for S=2.5   :     8.750000
Deviation                       :     0.002250

             **** THE GBW FILE WAS UPDATED (32_FeF.gbw) ****
             **** DENSITY FILE WAS UPDATED (32_FeF.scfp) ****
----------------
ORBITAL ENERGIES
----------------
                 SPIN UP ORBITALS
  NO   OCC          E(Eh)            E(eV) 
   0   1.0000    -255.297901     -6947.0091 
   1   1.0000     -29.721556      -808.7646 
   2   1.0000     -25.608920      -696.8541 
   3   1.0000     -25.582622      -696.1385 
   4   1.0000     -25.582622      -696.1385 
   5   1.0000     -24.374766      -663.2711 
   6   1.0000      -3.451250       -93.9133 
   7   1.0000      -2.277522       -61.9745 
   8   1.0000      -2.227471       -60.6126 
   9   1.0000      -2.227471       -60.6126 
  10   1.0000      -1.054444       -28.6929 
  11   1.0000      -0.410536       -11.1712 
  12   1.0000      -0.373139       -10.1536 
  13   1.0000      -0.373139       -10.1536 
  14   1.0000      -0.318837        -8.6760 
  15   1.0000      -0.293922        -7.9980 
  16   1.0000      -0.293922        -7.9980 
  17   1.0000      -0.289439        -7.8760 
  18   1.0000      -0.279016        -7.5924 
  19   1.0000      -0.179731        -4.8907 
  20   0.0000      -0.048066        -1.3079 
  21   0.0000      -0.048066        -1.3079 
  22   0.0000      -0.006559        -0.1785 
  23   0.0000       0.000071         0.0019 
  24   0.0000       0.025285         0.6880 
  25   0.0000       0.025285         0.6881 
  26   0.0000       0.044585         1.2132 
  27   0.0000       0.050624         1.3776 
  28   0.0000       0.050859         1.3840 
  29   0.0000       0.055950         1.5225 
  30   0.0000       0.055950         1.5225 
  31   0.0000       0.065529         1.7831 
  32   0.0000       0.097532         2.6540 
  33   0.0000       0.151138         4.1127 
  34   0.0000       0.151138         4.1127 
  35   0.0000       0.178091         4.8461 
  36   0.0000       0.217773         5.9259 
  37   0.0000       0.222652         6.0587 
  38   0.0000       0.222652         6.0587 
  39   0.0000       0.238458         6.4888 
  40   0.0000       0.240286         6.5385 
  41   0.0000       0.259889         7.0719 
  42   0.0000       0.259889         7.0719 
  43   0.0000       0.307251         8.3607 
  44   0.0000       0.419825        11.4240 
  45   0.0000       0.530417        14.4334 
  46   0.0000       0.658934        17.9305 
  47   0.0000       0.659051        17.9337 
  48   0.0000       0.677405        18.4331 
  49   0.0000       0.677405        18.4331 
  50   0.0000       0.773657        21.0523 
  51   0.0000       0.773657        21.0523 
  52   0.0000       0.783268        21.3138 
  53   0.0000       0.824387        22.4327 
  54   0.0000       0.824387        22.4327 
  55   0.0000       0.895834        24.3769 
  56   0.0000       0.905527        24.6406 
  57   0.0000       0.905527        24.6406 
  58   0.0000       0.942296        25.6412 
  59   0.0000       0.943864        25.6838 
  60   0.0000       0.995348        27.0848 
  61   0.0000       0.995349        27.0848 
  62   0.0000       1.014112        27.5954 
  63   0.0000       1.027251        27.9529 
  64   0.0000       1.038081        28.2476 
  65   0.0000       1.302647        35.4468 
  66   0.0000       1.333996        36.2999 
  67   0.0000       1.444662        39.3113 
  68   0.0000       1.444662        39.3113 
  69   0.0000       2.220551        60.4243 
  70   0.0000       2.319963        63.1294 
  71   0.0000       2.319963        63.1294 
  72   0.0000       2.452953        66.7483 
  73   0.0000       2.456720        66.8507 
  74   0.0000       2.488244        67.7086 
  75   0.0000       2.535423        68.9924 
  76   0.0000       2.535423        68.9924 
  77   0.0000       2.594336        70.5955 
  78   0.0000       2.605461        70.8982 
  79   0.0000       2.617447        71.2244 
  80   0.0000       2.617447        71.2244 
  81   0.0000       2.659982        72.3818 
  82   0.0000       2.661157        72.4138 
  83   0.0000       2.713948        73.8503 
  84   0.0000       2.717716        73.9528 
  85   0.0000       2.717716        73.9528 
  86   0.0000       2.842939        77.3603 
  87   0.0000       2.869108        78.0724 
  88   0.0000       2.869108        78.0724 
  89   0.0000       3.138988        85.4162 
  90   0.0000       3.138988        85.4162 
  91   0.0000       3.208682        87.3127 
  92   0.0000       3.209725        87.3410 
  93   0.0000       3.232525        87.9615 
  94   0.0000       3.232525        87.9615 
  95   0.0000       3.233253        87.9813 
  96   0.0000       3.470527        94.4378 
  97   0.0000       3.521638        95.8286 
  98   0.0000       3.528229        96.0080 
  99   0.0000       3.978918       108.2719 
 100   0.0000       3.978918       108.2719 
 101   0.0000       4.140842       112.6780 
 102   0.0000       4.332991       117.9067 
 103   0.0000       4.363591       118.7394 
 104   0.0000       4.658737       126.7707 
 105   0.0000       4.658737       126.7707 
 106   0.0000       4.799378       130.5977 
 107   0.0000       4.799378       130.5977 
 108   0.0000       4.961826       135.0181 
 109   0.0000       5.791079       157.5833 
 110   0.0000       8.326762       226.5827 
 111   0.0000       8.326762       226.5827 
 112   0.0000       8.411310       228.8834 
 113   0.0000       8.412713       228.9216 
 114   0.0000       8.545301       232.5295 
 115   0.0000       8.545301       232.5295 
 116   0.0000       8.623865       234.6673 
 117   0.0000       8.653026       235.4608 
 118   0.0000       8.663146       235.7362 
 119   0.0000       8.674545       236.0464 
 120   0.0000       8.720260       237.2903 
 121   0.0000       8.729753       237.5487 
 122   0.0000       8.729753       237.5487 
 123   0.0000       8.743449       237.9213 
 124   0.0000       8.780642       238.9334 
 125   0.0000       8.780642       238.9334 
 126   0.0000       8.965151       243.9542 
 127   0.0000       8.965151       243.9542 
 128   0.0000       9.242646       251.5052 
 129   0.0000       9.516452       258.9558 
 130   0.0000       9.516452       258.9558 
 131   0.0000       9.531731       259.3716 
 132   0.0000       9.531736       259.3717 
 133   0.0000       9.591355       260.9940 
 134   0.0000       9.613611       261.5997 
 135   0.0000       9.866309       268.4759 
 136   0.0000       9.866309       268.4759 
 137   0.0000      10.091370       274.6001 
 138   0.0000      13.987005       380.6057 

                 SPIN DOWN ORBITALS
  NO   OCC          E(Eh)            E(eV) 
   0   1.0000    -255.295981     -6946.9568 
   1   1.0000     -29.659276      -807.0699 
   2   1.0000     -25.550232      -695.2572 
   3   1.0000     -25.536208      -694.8755 
   4   1.0000     -25.536208      -694.8755 
   5   1.0000     -24.366926      -663.0578 
   6   1.0000      -3.294354       -89.6439 
   7   1.0000      -2.091243       -56.9056 
   8   1.0000      -2.085045       -56.7370 
   9   1.0000      -2.085045       -56.7370 
  10   1.0000      -1.038020       -28.2460 
  11   1.0000      -0.371896       -10.1198 
  12   1.0000      -0.334705        -9.1078 
  13   1.0000      -0.334705        -9.1078 
  14   1.0000      -0.211621        -5.7585 
  15   0.0000      -0.167554        -4.5594 
  16   0.0000      -0.154206        -4.1962 
  17   0.0000      -0.154206        -4.1962 
  18   0.0000      -0.132363        -3.6018 
  19   0.0000      -0.105800        -2.8790 
  20   0.0000      -0.009740        -0.2650 
  21   0.0000      -0.009740        -0.2650 
  22   0.0000       0.009209         0.2506 
  23   0.0000       0.024134         0.6567 
  24   0.0000       0.041518         1.1298 
  25   0.0000       0.041518         1.1298 
  26   0.0000       0.063745         1.7346 
  27   0.0000       0.071528         1.9464 
  28   0.0000       0.077766         2.1161 
  29   0.0000       0.077766         2.1161 
  30   0.0000       0.077777         2.1164 
  31   0.0000       0.083397         2.2694 
  32   0.0000       0.132849         3.6150 
  33   0.0000       0.189017         5.1434 
  34   0.0000       0.189017         5.1434 
  35   0.0000       0.205450         5.5906 
  36   0.0000       0.231171         6.2905 
  37   0.0000       0.231171         6.2905 
  38   0.0000       0.236185         6.4269 
  39   0.0000       0.265122         7.2143 
  40   0.0000       0.280452         7.6315 
  41   0.0000       0.290527         7.9056 
  42   0.0000       0.290527         7.9056 
  43   0.0000       0.325096         8.8463 
  44   0.0000       0.457344        12.4450 
  45   0.0000       0.574754        15.6398 
  46   0.0000       0.675633        18.3849 
  47   0.0000       0.679486        18.4898 
  48   0.0000       0.726307        19.7638 
  49   0.0000       0.726307        19.7638 
  50   0.0000       0.823844        22.4179 
  51   0.0000       0.823844        22.4179 
  52   0.0000       0.826089        22.4790 
  53   0.0000       0.852404        23.1951 
  54   0.0000       0.852404        23.1951 
  55   0.0000       0.924306        25.1516 
  56   0.0000       0.946279        25.7496 
  57   0.0000       0.946279        25.7496 
  58   0.0000       0.977422        26.5970 
  59   0.0000       0.981381        26.7047 
  60   0.0000       1.036236        28.1974 
  61   0.0000       1.036236        28.1974 
  62   0.0000       1.077292        29.3146 
  63   0.0000       1.086211        29.5573 
  64   0.0000       1.114386        30.3240 
  65   0.0000       1.321854        35.9695 
  66   0.0000       1.375163        37.4201 
  67   0.0000       1.487943        40.4890 
  68   0.0000       1.487943        40.4890 
  69   0.0000       2.247519        61.1581 
  70   0.0000       2.360712        64.2382 
  71   0.0000       2.360712        64.2382 
  72   0.0000       2.477635        67.4199 
  73   0.0000       2.482253        67.5455 
  74   0.0000       2.562784        69.7369 
  75   0.0000       2.589519        70.4644 
  76   0.0000       2.589519        70.4644 
  77   0.0000       2.656179        72.2783 
  78   0.0000       2.656179        72.2783 
  79   0.0000       2.669130        72.6307 
  80   0.0000       2.677988        72.8718 
  81   0.0000       2.680589        72.9425 
  82   0.0000       2.706875        73.6578 
  83   0.0000       2.773151        75.4613 
  84   0.0000       2.773151        75.4613 
  85   0.0000       2.785412        75.7949 
  86   0.0000       2.927293        79.6557 
  87   0.0000       2.970349        80.8273 
  88   0.0000       2.970349        80.8273 
  89   0.0000       3.184505        86.6548 
  90   0.0000       3.184505        86.6548 
  91   0.0000       3.276996        89.1716 
  92   0.0000       3.282280        89.3154 
  93   0.0000       3.314873        90.2023 
  94   0.0000       3.314873        90.2023 
  95   0.0000       3.318169        90.2920 
  96   0.0000       3.547523        96.5330 
  97   0.0000       3.585808        97.5748 
  98   0.0000       3.603262        98.0498 
  99   0.0000       4.061075       110.5075 
 100   0.0000       4.061075       110.5075 
 101   0.0000       4.184727       113.8722 
 102   0.0000       4.439983       120.8181 
 103   0.0000       4.482569       121.9769 
 104   0.0000       4.738552       128.9426 
 105   0.0000       4.738552       128.9426 
 106   0.0000       4.846210       131.8721 
 107   0.0000       4.846210       131.8721 
 108   0.0000       5.033082       136.9571 
 109   0.0000       5.865871       159.6185 
 110   0.0000       8.341903       226.9947 
 111   0.0000       8.341903       226.9947 
 112   0.0000       8.431623       229.4361 
 113   0.0000       8.431651       229.4369 
 114   0.0000       8.632639       234.9060 
 115   0.0000       8.632639       234.9060 
 116   0.0000       8.657772       235.5900 
 117   0.0000       8.694771       236.5968 
 118   0.0000       8.694875       236.5996 
 119   0.0000       8.774560       238.7679 
 120   0.0000       8.802063       239.5163 
 121   0.0000       8.802063       239.5163 
 122   0.0000       8.896678       242.0909 
 123   0.0000       8.897599       242.1160 
 124   0.0000       8.897599       242.1160 
 125   0.0000       8.930718       243.0172 
 126   0.0000       9.103538       247.7199 
 127   0.0000       9.103538       247.7199 
 128   0.0000       9.355454       254.5749 
 129   0.0000       9.651000       262.6171 
 130   0.0000       9.653139       262.6753 
 131   0.0000       9.653139       262.6753 
 132   0.0000       9.654319       262.7074 
 133   0.0000       9.737335       264.9664 
 134   0.0000       9.746868       265.2258 
 135   0.0000      10.003242       272.2021 
 136   0.0000      10.003242       272.2021 
 137   0.0000      10.223253       278.1889 
 138   0.0000      14.008793       381.1986 

                    ********************************
                    * MULLIKEN POPULATION ANALYSIS *
                    ********************************

--------------------------------------------
MULLIKEN ATOMIC CHARGES AND SPIN POPULATIONS
--------------------------------------------
   0 Fe:    0.535667    4.789028
   1 F :   -0.535667    0.210972
Sum of atomic charges         :   -0.0000000
Sum of atomic spin populations:    5.0000000

-----------------------------------------------------
MULLIKEN REDUCED ORBITAL CHARGES AND SPIN POPULATIONS
-----------------------------------------------------
CHARGE
  0 Fes       :     6.927841  s :     6.927841
      pz      :     4.214684  p :    12.274317
      px      :     4.029816
      py      :     4.029816
      dz2     :     1.102711  d :     6.243097
      dxz     :     1.070697
      dyz     :     1.070697
      dx2y2   :     0.999748
      dxy     :     1.999244
      f0      :     0.008130  f :     0.016933
      f+1     :     0.004331
      f-1     :     0.004331
      f+2     :     0.000017
      f-2     :     0.000020
      f+3     :     0.000052
      f-3     :     0.000052
      g0      :     0.001069  g :     0.002145
      g+1     :     0.000518
      g-1     :     0.000518
      g+2     :     0.000002
      g-2     :     0.000011
      g+3     :     0.000003
      g-3     :     0.000003
      g+4     :     0.000021
      g-4     :     0.000000
  1 F s       :     3.991577  s :     3.991577
      pz      :     1.750914  p :     5.529851
      px      :     1.889468
      py      :     1.889468
      dz2     :     0.002416  d :     0.012379
      dxz     :     0.004602
      dyz     :     0.004602
      dx2y2   :     0.000180
      dxy     :     0.000578
      f0      :     0.000637  f :     0.001861
      f+1     :     0.000512
      f-1     :     0.000512
      f+2     :     0.000053
      f-2     :     0.000146
      f+3     :     0.000000
      f-3     :     0.000000

SPIN
  0 Fes       :     0.868848  s :     0.868848
      pz      :     0.182385  p :     0.202565
      px      :     0.010090
      py      :     0.010090
      dz2     :     0.860845  d :     3.715268
      dxz     :     0.927266
      dyz     :     0.927266
      dx2y2   :     0.999748
      dxy     :     0.000142
      f0      :     0.000763  f :     0.002412
      f+1     :     0.000837
      f-1     :     0.000837
      f+2     :     0.000017
      f-2     :     0.000021
      f+3     :    -0.000031
      f-3     :    -0.000031
      g0      :    -0.000063  g :    -0.000064
      g+1     :    -0.000003
      g-1     :    -0.000003
      g+2     :     0.000002
      g-2     :     0.000003
      g+3     :     0.000001
      g-3     :     0.000001
      g+4     :    -0.000002
      g-4     :    -0.000000
  1 F s       :    -0.001660  s :    -0.001660
      pz      :     0.088629  p :     0.213304
      px      :     0.062337
      py      :     0.062337
      dz2     :     0.000129  d :    -0.000878
      dxz     :    -0.000523
      dyz     :    -0.000523
      dx2y2   :     0.000180
      dxy     :    -0.000141
      f0      :     0.000127  f :     0.000205
      f+1     :     0.000025
      f-1     :     0.000025
      f+2     :     0.000053
      f-2     :    -0.000025
      f+3     :    -0.000000
      f-3     :    -0.000000


                     *******************************
                     * LOEWDIN POPULATION ANALYSIS *
                     *******************************

-------------------------------------------
LOEWDIN ATOMIC CHARGES AND SPIN POPULATIONS
-------------------------------------------
   0 Fe:    0.388600    4.667301
   1 F :   -0.388600    0.332699

----------------------------------------------------
LOEWDIN REDUCED ORBITAL CHARGES AND SPIN POPULATIONS
----------------------------------------------------
CHARGE
  0 Fes       :     6.714162  s :     6.714162
      pz      :     4.309589  p :    12.383740
      px      :     4.037075
      py      :     4.037075
      dz2     :     1.181041  d :     6.332690
      dxz     :     1.080012
      dyz     :     1.080012
      dx2y2   :     0.997551
      dxy     :     1.994072
      f0      :     0.076244  f :     0.167135
      f+1     :     0.045288
      f-1     :     0.045288
      f+2     :     0.000084
      f-2     :     0.000128
      f+3     :     0.000052
      f-3     :     0.000052
      g0      :     0.007208  g :     0.013674
      g+1     :     0.003202
      g-1     :     0.003202
      g+2     :     0.000006
      g-2     :     0.000029
      g+3     :     0.000003
      g-3     :     0.000003
      g+4     :     0.000021
      g-4     :     0.000000
  1 F s       :     3.738859  s :     3.738859
      pz      :     1.862190  p :     5.450283
      px      :     1.794046
      py      :     1.794046
      dz2     :     0.092115  d :     0.162702
      dxz     :     0.032343
      dyz     :     0.032343
      dx2y2   :     0.001677
      dxy     :     0.004225
      f0      :     0.018570  f :     0.036756
      f+1     :     0.007979
      f-1     :     0.007979
      f+2     :     0.000682
      f-2     :     0.001546
      f+3     :     0.000000
      f-3     :     0.000000

SPIN
  0 Fes       :     0.748873  s :     0.748873
      pz      :     0.237512  p :     0.271452
      px      :     0.016970
      py      :     0.016970
      dz2     :     0.840501  d :     3.629300
      dxz     :     0.895456
      dyz     :     0.895456
      dx2y2   :     0.997551
      dxy     :     0.000336
      f0      :     0.004358  f :     0.015930
      f+1     :     0.005741
      f-1     :     0.005741
      f+2     :     0.000084
      f-2     :     0.000069
      f+3     :    -0.000031
      f-3     :    -0.000031
      g0      :     0.000715  g :     0.001746
      g+1     :     0.000517
      g-1     :     0.000517
      g+2     :     0.000006
      g-2     :    -0.000010
      g+3     :     0.000001
      g-3     :     0.000001
      g+4     :    -0.000002
      g-4     :    -0.000000
  1 F s       :     0.032774  s :     0.032774
      pz      :     0.125261  p :     0.241014
      px      :     0.057877
      py      :     0.057877
      dz2     :     0.006073  d :     0.042963
      dxz     :     0.017777
      dyz     :     0.017777
      dx2y2   :     0.001677
      dxy     :    -0.000340
      f0      :     0.003934  f :     0.015948
      f+1     :     0.005694
      f-1     :     0.005694
      f+2     :     0.000682
      f-2     :    -0.000055
      f+3     :    -0.000000
      f-3     :    -0.000000


                      *****************************
                      * MAYER POPULATION ANALYSIS *
                      *****************************

  NA   - Mulliken gross atomic population
  ZA   - Total nuclear charge
  QA   - Mulliken gross atomic charge
  VA   - Mayer's total valence
  BVA  - Mayer's bonded valence
  FA   - Mayer's free valence

  ATOM       NA         ZA         QA         VA         BVA        FA
  0 Fe    25.4643    26.0000     0.5357     5.3847     0.8181     4.5666
  1 F      9.5357     9.0000    -0.5357     0.8373     0.8181     0.0192

  Mayer bond orders larger than 0.100000
B(  0-Fe,  1-F ) :   0.8181 

-------
TIMINGS
-------

Total SCF time: 0 days 0 hours 0 min 2 sec 

Total time                  ....       2.870 sec
Sum of individual times     ....       2.714 sec  ( 94.6%)

Fock matrix formation       ....       2.341 sec  ( 81.6%)
  Split-RI-J                ....       1.636 sec  ( 69.9% of F)
  XC integration            ....       0.632 sec  ( 27.0% of F)
    Basis function eval.    ....       0.067 sec  ( 10.6% of XC)
    Density eval.           ....       0.068 sec  ( 10.8% of XC)
    XC-Functional eval.     ....       0.018 sec  (  2.8% of XC)
    XC-Potential eval.      ....       0.191 sec  ( 30.3% of XC)
Diagonalization             ....       0.065 sec  (  2.3%)
Density matrix formation    ....       0.009 sec  (  0.3%)
Population analysis         ....       0.007 sec  (  0.3%)
Initial guess               ....       0.115 sec  (  4.0%)
Orbital Transformation      ....       0.000 sec  (  0.0%)
Orbital Orthonormalization  ....       0.000 sec  (  0.0%)
DIIS solution               ....       0.023 sec  (  0.8%)
Grid generation             ....       0.155 sec  (  5.4%)


-------------------------------------------------------------------------------
                          DFT DISPERSION CORRECTION                            
                                                                               
                              DFTD3 V3.1  Rev 1                                
                          USING Becke-Johnson damping                          
-------------------------------------------------------------------------------
The TPSS functional is recognized
Active option DFTDOPT                   ...         4   

molecular C6(AA) [au] = 301.673700 


            DFT-D V3
 parameters
 s6 scaling factor         :     1.0000 
 a1 scaling factor         :     0.4535 
 s8 scaling factor         :     1.9435 
 a2 scaling factor         :     4.4752 
 ad hoc parameters k1-k3   :    16.0000     1.3333    -4.0000 

 Edisp/kcal,au: -0.326761980784  -0.000520728307 
 E6   /kcal   :  -0.133244552 
 E8   /kcal   :  -0.193517429 
 % E8         :  59.222749302 

-------------------------   ----------------
Dispersion correction           -0.000520728
-------------------------   ----------------


-------------------------   --------------------
FINAL SINGLE POINT ENERGY     -1363.676563038678
-------------------------   --------------------


                            ***************************************
                            *     ORCA property calculations      *
                            ***************************************

                                    ---------------------
                                    Active property flags
                                    ---------------------
   (+) Dipole Moment


------------------------------------------------------------------------------
                       ORCA ELECTRIC PROPERTIES CALCULATION
------------------------------------------------------------------------------

Dipole Moment Calculation                       ... on
Quadrupole Moment Calculation                   ... off
Polarizability Calculation                      ... off
GBWName                                         ... 32_FeF.gbw
Electron density file                           ... 32_FeF.scfp
The origin for moment calculation is the CENTER OF MASS  = ( 0.000000,  0.000000  1.061319)

-------------
DIPOLE MOMENT
-------------
                                X             Y             Z
Electronic contribution:     -0.00000       0.00000      -1.03734
Nuclear contribution   :      0.00000       0.00000       0.39123
                        -----------------------------------------
Total Dipole Moment    :     -0.00000       0.00000      -0.64611
                        -----------------------------------------
Magnitude (a.u.)       :      0.64611
Magnitude (Debye)      :      1.64229



--------------------
Rotational spectrum 
--------------------
 
Rotational constants in cm-1:     0.000000     0.375023     0.375023 
Rotational constants in MHz :     0.000000 11242.894653 11242.894653 

 Dipole components along the rotational axes: 
x,y,z [a.u.] :    -0.646113     0.000000    -0.000000 
x,y,z [Debye]:    -1.642290     0.000000    -0.000000 

 

Timings for individual modules:

Sum of individual times         ...        6.448 sec (=   0.107 min)
GTO integral calculation        ...        3.228 sec (=   0.054 min)  50.1 %
SCF iterations                  ...        3.219 sec (=   0.054 min)  49.9 %
                             ****ORCA TERMINATED NORMALLY****
TOTAL RUN TIME: 0 days 0 hours 0 minutes 7 seconds 34 msec
