
                                 *****************
                                 * O   R   C   A *
                                 *****************

           --- An Ab Initio, DFT and Semiempirical electronic structure package ---

                  #######################################################
                  #                        -***-                        #
                  #          Department of theory and spectroscopy      #
                  #               Directorship: Frank Neese             #
                  #        Max Planck Institute fuer Kohlenforschung    #
                  #                Kaiser Wilhelm Platz 1               #
                  #                 D-45470 Muelheim/Ruhr               #
                  #                      Germany                        #
                  #                                                     #
                  #                  All rights reserved                #
                  #                        -***-                        #
                  #######################################################


                         Program Version 4.2.0 -  RELEASE  -


 With contributions from (in alphabetic order):
   Daniel Aravena         : Magnetic Suceptibility
   Michael Atanasov       : Ab Initio Ligand Field Theory (pilot matlab implementation)
   Alexander A. Auer      : GIAO ZORA, VPT2
   Ute Becker             : Parallelization
   Giovanni Bistoni       : ED, misc. LED, open-shell LED, HFLED
   Martin Brehm           : Molecular dynamics
   Dmytro Bykov           : SCF Hessian
   Vijay G. Chilkuri      : MRCI spin determinant printing, contributions to CSF-ICE
   Dipayan Datta          : RHF DLPNO-CCSD density
   Achintya Kumar Dutta   : EOM-CC, STEOM-CC
   Dmitry Ganyushin       : Spin-Orbit,Spin-Spin,Magnetic field MRCI
   Miquel Garcia          : C-PCM Hessian, Gaussian charge scheme
   Yang Guo               : DLPNO-NEVPT2, CIM, IAO-localization
   Andreas Hansen         : Spin unrestricted coupled pair/coupled cluster methods
   Benjamin Helmich-Paris : CASSCF linear response (MC-RPA)
   Lee Huntington         : MR-EOM, pCC
   Robert Izsak           : Overlap fitted RIJCOSX, COSX-SCS-MP3, EOM
   Christian Kollmar      : KDIIS, OOCD, Brueckner-CCSD(T), CCSD density
   Simone Kossmann        : Meta GGA functionals, TD-DFT gradient, OOMP2, MP2 Hessian
   Martin Krupicka        : AUTO-CI
   Lucas Lang             : DCDCAS
   Dagmar Lenk            : GEPOL surface, SMD
   Dimitrios Liakos       : Extrapolation schemes; Compound Job, initial MDCI parallelization
   Dimitrios Manganas     : Further ROCIS development; embedding schemes
   Dimitrios Pantazis     : SARC Basis sets
   Taras Petrenko         : DFT Hessian,TD-DFT gradient, ASA, ECA, R-Raman, ABS, FL, XAS/XES, NRVS
   Peter Pinski           : DLPNO-MP2, DLPNO-MP2 Gradient
   Christoph Reimann      : Effective Core Potentials
   Marius Retegan         : Local ZFS, SOC
   Christoph Riplinger    : Optimizer, TS searches, QM/MM, DLPNO-CCSD(T), (RO)-DLPNO pert. Triples
   Tobias Risthaus        : Range-separated hybrids, TD-DFT gradient, RPA, STAB
   Michael Roemelt        : Original ROCIS implementation
   Masaaki Saitow         : Open-shell DLPNO-CCSD energy and density
   Barbara Sandhoefer     : DKH picture change effects
   Avijit Sen             : IP-ROCIS
   Kantharuban Sivalingam : CASSCF convergence, NEVPT2, FIC-MRCI
   Bernardo de Souza      : ESD, SOC TD-DFT
   Georgi Stoychev        : AutoAux, RI-MP2 NMR
   Willem Van den Heuvel  : Paramagnetic NMR
   Boris Wezisla          : Elementary symmetry handling
   Frank Wennmohs         : Technical directorship


 We gratefully acknowledge several colleagues who have allowed us to
 interface, adapt or use parts of their codes:
   Stefan Grimme, W. Hujo, H. Kruse,             : VdW corrections, initial TS optimization,
                  C. Bannwarth                     DFT functionals, gCP, sTDA/sTD-DF
   Ed Valeev, F. Pavosevic, A. Kumar             : LibInt (2-el integral package), F12 methods
   Garnet Chan, S. Sharma, J. Yang, R. Olivares  : DMRG
   Ulf Ekstrom                                   : XCFun DFT Library
   Mihaly Kallay                                 : mrcc  (arbitrary order and MRCC methods)
   Andreas Klamt, Michael Diedenhofen            : otool_cosmo (COSMO solvation model)
   Jiri Pittner, Ondrej Demel                    : Mk-CCSD
   Frank Weinhold                                : gennbo (NPA and NBO analysis)
   Christopher J. Cramer and Donald G. Truhlar   : smd solvation model
   Lars Goerigk                                  : TD-DFT with DH, B97 family of functionals
   V. Asgeirsson, H. Jonsson                     : NEB implementation
   FAccTs GmbH                                   : IRC, NEB, NEB-TS, Multilevel, MM, QM/MM, CI optimization
   S Lehtola, MJT Oliveira, MAL Marques          : LibXC Library


 Your calculation uses the libint2 library for the computation of 2-el integrals
 For citations please refer to: http://libint.valeyev.net

 Your ORCA version has been built with support for libXC version: 4.2.3
 For citations please refer to: https://tddft.org/programs/libxc/

 This ORCA versions uses:
   CBLAS   interface :  Fast vector & matrix operations
   LAPACKE interface :  Fast linear algebra routines
   SCALAPACK package :  Parallel linear algebra routines


Your calculation utilizes the atom-pairwise dispersion correction
with the Becke-Johnson damping scheme (D3BJ)
Cite in your paper:
S.Grimme, S.Ehrlich, L.Goerigk, J Comput Chem, (2011), 32, 1456–1465 
S.Grimme, J.Antony, S.Ehrlich and H.Krieg, J.Chem.Phys., 132, (2010), 154104 
   

----- Orbital basis set information -----
Your calculation utilizes the basis: aug-cc-pVTZ 
    H, B-Ne : Obtained from the ccRepo (grant-hill.group.shef.ac.uk/ccrepo) Feb. 2017
              R. A. Kendall, T. H. Dunning, Jr., R. J. Harrison, J. Chem. Phys. 96, 6796 (1992)
         He : Obtained from the ccRepo (grant-hill.group.shef.ac.uk/ccrepo) Feb. 2017
              D. E. Woon, T. H. Dunning, Jr., J. Chem. Phys. 100, 2975 (1994)
  Li-Be, Na : Obtained from the ccRepo (grant-hill.group.shef.ac.uk/ccrepo) Feb. 2017
              B. P. Prascher, D. E. Woon, K. A. Peterson, T. H. Dunning, Jr., A. K. Wilson, Theor. Chem. Acc. 128, 69 (2011)
         Mg : Obtained from the Peterson Research Group Website (tyr0.chem.wsu.edu/~kipeters) Feb. 2017
              B. P. Prascher, D. E. Woon, K. A. Peterson, T. H. Dunning, Jr., A. K. Wilson, Theor. Chem. Acc. 128, 69 (2011)
      Al-Ar : Obtained from the ccRepo (grant-hill.group.shef.ac.uk/ccrepo) Feb. 2017
              D. E. Woon, T. H. Dunning, Jr., J. Chem. Phys. 98, 1358 (1993)
      Sc-Zn : Obtained from the ccRepo (grant-hill.group.shef.ac.uk/ccrepo) Feb. 2017
              N. B. Balabanov, K. A. Peterson, J. Chem. Phys. 123, 064107 (2005)
              N. B. Balabanov, K. A. Peterson, J. Chem. Phys. 125, 074110 (2006)
      Ga-Kr : Obtained from the ccRepo (grant-hill.group.shef.ac.uk/ccrepo) Feb. 2017
              A. K. Wilson, D. E. Woon, K. A. Peterson, T. H. Dunning, Jr., J. Chem. Phys. 110, 7667 (1999)
     Ag, Au : Obtained from the Peterson Research Group Website (tyr0.chem.wsu.edu/~kipeters) Feb. 2017
              K. A. Peterson, C. Puzzarini, Theor. Chem. Acc. 114, 283 (2005)

----- AuxJ basis set information -----
Your calculation utilizes the auxiliary basis: def2/J
   F. Weigend, Phys. Chem. Chem. Phys. 8, 1057 (2006).

================================================================================
                                        WARNINGS
                       Please study these warnings very carefully!
================================================================================


WARNING: your system is open-shell and RHF/RKS was chosen
  ===> : WILL SWITCH to UHF/UKS


INFO   : the flag for use of LIBINT has been found!

================================================================================
                                       INPUT FILE
================================================================================
NAME = 37_CoH.in
|  1> #
|  2> # 37_CoH tpss/aug-cc-pvtz
|  3> #
|  4> ! tpss d3bj aug-cc-pvtz def2/j grid4 nofinalgrid
|  5> 
|  6> *xyz 0 3
|  7>   Co  0.00000000000000      0.00000000000000      0.23964953556340
|  8>   H   0.00000000000000      0.00000000000000      1.76035046443660
|  9> *
| 10> 
| 11> %pal
| 12> nprocs 24
| 13> end
| 14> 
| 15> 
| 16>                          ****END OF INPUT****
================================================================================

                       ****************************
                       * Single Point Calculation *
                       ****************************

---------------------------------
CARTESIAN COORDINATES (ANGSTROEM)
---------------------------------
  Co     0.000000    0.000000    0.239650
  H      0.000000    0.000000    1.760350

----------------------------
CARTESIAN COORDINATES (A.U.)
----------------------------
  NO LB      ZA    FRAG     MASS         X           Y           Z
   0 Co   27.0000    0    58.930    0.000000    0.000000    0.452872
   1 H     1.0000    0     1.008    0.000000    0.000000    3.326580

--------------------------------
INTERNAL COORDINATES (ANGSTROEM)
--------------------------------
 Co     0   0   0     0.000000000000     0.00000000     0.00000000
 H      1   0   0     1.520700928873     0.00000000     0.00000000

---------------------------
INTERNAL COORDINATES (A.U.)
---------------------------
 Co     0   0   0     0.000000000000     0.00000000     0.00000000
 H      1   0   0     2.873708287170     0.00000000     0.00000000

---------------------
BASIS SET INFORMATION
---------------------
There are 2 groups of distinct atoms

 Group   1 Type Co  : 116s77p23d3f2g contracted to 8s7p5d3f2g pattern {19191919191911/151515151511/77711/111/11}
 Group   2 Type H   : 6s3p2d contracted to 4s3p2d pattern {3111/111/11}

Atom   0Co   basis set group =>   1
Atom   1H    basis set group =>   2
---------------------------------
AUXILIARY/J BASIS SET INFORMATION
---------------------------------
There are 2 groups of distinct atoms

 Group   1 Type Co  : 19s5p5d3f3g contracted to 8s5p5d2f3g pattern {121111111/11111/11111/21/111}
 Group   2 Type H   : 5s2p1d contracted to 3s1p1d pattern {311/2/1}

Atom   0Co   basis set group =>   1
Atom   1H    basis set group =>   2


           ************************************************************
           *        Program running with 24 parallel MPI-processes    *
           *              working on a common directory               *
           ************************************************************
------------------------------------------------------------------------------
                           ORCA GTO INTEGRAL CALCULATION
                           -- RI-GTO INTEGRALS CHOSEN --
------------------------------------------------------------------------------

                         BASIS SET STATISTICS AND STARTUP INFO

Gaussian basis set:
 # of primitive gaussian shells          ...  232
 # of primitive gaussian functions       ...  526
 # of contracted shells                  ...   34
 # of contracted basis functions         ...  116
 Highest angular momentum                ...    4
 Maximum contraction depth               ...   19
Auxiliary gaussian basis set:
 # of primitive gaussian shells          ...   43
 # of primitive gaussian functions       ...  123
 # of contracted shells                  ...   28
 # of contracted aux-basis functions     ...  100
 Highest angular momentum                ...    4
 Maximum contraction depth               ...   12
Ratio of auxiliary to basis functions    ...  0.86
Integral package used                  ... LIBINT
 One Electron integrals                  ... done
 Ordering auxiliary basis shells         ... done
 Integral threshhold             Thresh  ...  1.000e-10
 Primitive cut-off               TCut    ...  1.000e-11
 Pre-screening matrix                    ... done
 Shell pair data                         ... 
 Ordering of the shell pairs             ... done (   0.000 sec) 595 of 595 pairs
 Determination of significant pairs      ... done (   0.000 sec)
 Creation of shell pair data             ... done (   0.001 sec)
 Storage of shell pair data              ... done (   0.131 sec)
 Shell pair data done in (   0.132 sec)
 Computing two index integrals           ... done
 Cholesky decomposition of the V-matrix  ... done


Timings:
 Total evaluation time                   ...   2.664 sec (  0.044 min)
 One electron matrix time                ...   0.042 sec (  0.001 min) =  1.6%
 Schwartz matrix evaluation time         ...   2.459 sec (  0.041 min) = 92.3%
 Two index repulsion integral time       ...   0.001 sec (  0.000 min) =  0.1%
 Cholesky decomposition of V             ...   0.001 sec (  0.000 min) =  0.0%
 Three index repulsion integral time     ...   0.000 sec (  0.000 min) =  0.0%



           ************************************************************
           *        Program running with 24 parallel MPI-processes    *
           *              working on a common directory               *
           ************************************************************
-------------------------------------------------------------------------------
                                 ORCA SCF
-------------------------------------------------------------------------------

------------
SCF SETTINGS
------------
Hamiltonian:
 Density Functional     Method          .... DFT(GTOs)
 Exchange Functional    Exchange        .... TPSS
 Correlation Functional Correlation     .... TPSS
 LDA part of GGA corr.  LDAOpt          .... PW91-LDA
 Gradients option       PostSCFGGA      .... off
   Density functional embedding theory  .... OFF
   NL short-range parameter             ....  5.000000
 RI-approximation to the Coulomb term is turned on
   Number of auxiliary basis functions  .... 100


General Settings:
 Integral files         IntName         .... 37_CoH
 Hartree-Fock type      HFTyp           .... UHF
 Total Charge           Charge          ....    0
 Multiplicity           Mult            ....    3
 Number of Electrons    NEL             ....   28
 Basis Dimension        Dim             ....  116
 Nuclear Repulsion      ENuc            ....      9.3955256769 Eh

Convergence Acceleration:
 DIIS                   CNVDIIS         .... on
   Start iteration      DIISMaxIt       ....    12
   Startup error        DIISStart       ....  0.200000
   # of expansion vecs  DIISMaxEq       ....     5
   Bias factor          DIISBfac        ....   1.050
   Max. coefficient     DIISMaxC        ....  10.000
 Newton-Raphson         CNVNR           .... off
 SOSCF                  CNVSOSCF        .... off
 Level Shifting         CNVShift        .... on
   Level shift para.    LevelShift      ....    0.2500
   Turn off err/grad.   ShiftErr        ....    0.0010
 Zerner damping         CNVZerner       .... off
 Static damping         CNVDamp         .... on
   Fraction old density DampFac         ....    0.7000
   Max. Damping (<1)    DampMax         ....    0.9800
   Min. Damping (>=0)   DampMin         ....    0.0000
   Turn off err/grad.   DampErr         ....    0.1000
 Fernandez-Rico         CNVRico         .... off

SCF Procedure:
 Maximum # iterations   MaxIter         ....   125
 SCF integral mode      SCFMode         .... Direct
   Integral package                     .... LIBINT
 Reset frequency        DirectResetFreq ....    20
 Integral Threshold     Thresh          ....  1.000e-10 Eh
 Primitive CutOff       TCut            ....  1.000e-11 Eh

Convergence Tolerance:
 Convergence Check Mode ConvCheckMode   .... Total+1el-Energy
 Convergence forced     ConvForced      .... 0
 Energy Change          TolE            ....  1.000e-06 Eh
 1-El. energy change                    ....  1.000e-03 Eh
 DIIS Error             TolErr          ....  1.000e-06


Diagonalization of the overlap matrix:
Smallest eigenvalue                        ... 6.306e-05
Time for diagonalization                   ...    0.004 sec
Threshold for overlap eigenvalues          ... 1.000e-08
Number of eigenvalues below threshold      ... 0
Time for construction of square roots      ...    0.002 sec
Total time needed                          ...    0.006 sec

-------------------
DFT GRID GENERATION
-------------------

General Integration Accuracy     IntAcc      ...  4.670
Radial Grid Type                 RadialGrid  ... Gauss-Chebyshev
Angular Grid (max. acc.)         AngularGrid ... Lebedev-302
Angular grid pruning method      GridPruning ... 3 (G Style)
Weight generation scheme         WeightScheme... Becke
Basis function cutoff            BFCut       ...    1.0000e-10
Integration weight cutoff        WCut        ...    1.0000e-14
Grids for H and He will be reduced by one unit

# of grid points (after initial pruning)     ...  13034 (   0.0 sec)
# of grid points (after weights+screening)   ...  12998 (   0.0 sec)
nearest neighbour list constructed           ...    0.0 sec
Grid point re-assignment to atoms done       ...    0.0 sec
Grid point division into batches done        ...    0.1 sec
Reduced shell lists constructed in    0.1 sec

Total number of grid points                  ...    12998
Total number of batches                      ...      205
Average number of points per batch           ...       63
Average number of grid points per atom       ...     6499
Average number of shells per batch           ...    14.60 (42.94%)
Average number of basis functions per batch  ...    32.60 (28.10%)
Average number of large shells per batch     ...     7.00 (47.95%)
Average number of large basis fcns per batch ...    15.80 (48.47%)
Maximum spatial batch extension              ...  31.41, 28.57, 18.66 au
Average spatial batch extension              ...   1.02,  0.93,  0.70 au

Time for grid setup =    0.123 sec

------------------------------
INITIAL GUESS: MODEL POTENTIAL
------------------------------
Loading Hartree-Fock densities                     ... done
Calculating cut-offs                               ... done
Setting up the integral package                    ... done
Initializing the effective Hamiltonian             ... done
Starting the Coulomb interaction                   ... done (   0.0 sec)
Reading the grid                                   ... done
Mapping shells                                     ... done
Starting the XC term evaluation                    ... done (   0.0 sec)
  promolecular density results
     # of electrons  =     27.999537409
     EX              =    -58.009962809
     EC              =     -1.229133509
     EX+EC           =    -59.239096318
Transforming the Hamiltonian                       ... done (   0.0 sec)
Diagonalizing the Hamiltonian                      ... done (   0.0 sec)
Back transforming the eigenvectors                 ... done (   0.0 sec)
Now organizing SCF variables                       ... done
                      ------------------
                      INITIAL GUESS DONE (   0.2 sec)
                      ------------------
--------------
SCF ITERATIONS
--------------
ITER       Energy         Delta-E        Max-DP      RMS-DP      [F,P]     Damp
               ***  Starting incremental Fock matrix formation  ***
  0  -1383.2821308014   0.000000000000 0.08090880  0.00158397  0.3368475 0.7000
  1  -1383.3266803918  -0.044549590346 0.03207052  0.00076116  0.0700111 0.7000
                               ***Turning on DIIS***
  2  -1383.3446604172  -0.017980025445 0.06016093  0.00154495  0.0780846 0.0000
  3  -1383.3762262813  -0.031565864021 0.01254972  0.00030581  0.1638547 0.7000
  4  -1383.3838533601  -0.007627078801 0.00957535  0.00022606  0.1222233 0.7000
  5  -1383.3893759350  -0.005522574948 0.03135873  0.00054068  0.0856058 0.0000
  6  -1383.3974196053  -0.008043670258 0.00726597  0.00012116  0.0042584 0.0000
  7  -1383.3976505338  -0.000230928492 0.00457737  0.00006835  0.0041772 0.0000
  8  -1383.3977518991  -0.000101365332 0.00323886  0.00004487  0.0017136 0.0000
  9  -1383.3978002079  -0.000048308830 0.00237255  0.00003411  0.0011366 0.0000
 10  -1383.3978249895  -0.000024781575 0.00382322  0.00005189  0.0007311 0.0000
 11  -1383.3978424711  -0.000017481614 0.00046271  0.00000726  0.0002161 0.0000
 12  -1383.3978424723  -0.000000001240 0.00009070  0.00000141  0.0002556 0.0000
 13  -1383.3978426747  -0.000000202341 0.00006647  0.00000126  0.0000476 0.0000
                 **** Energy Check signals convergence ****

               *****************************************************
               *                     SUCCESS                       *
               *           SCF CONVERGED AFTER  14 CYCLES          *
               *****************************************************


----------------
TOTAL SCF ENERGY
----------------

Total Energy       :        -1383.39784269 Eh          -37644.16909 eV

Components:
Nuclear Repulsion  :            9.39552568 Eh             255.66525 eV
Electronic Energy  :        -1392.79336837 Eh          -37899.83434 eV
One Electron Energy:        -1936.70804880 Eh          -52700.50525 eV
Two Electron Energy:          543.91468043 Eh           14800.67091 eV

Virial components:
Potential Energy   :        -2764.77464296 Eh          -75233.34282 eV
Kinetic Energy     :         1381.37680027 Eh           37589.17373 eV
Virial Ratio       :            2.00146306


DFT components:
N(Alpha)           :       15.000007451989 electrons
N(Beta)            :       13.000007698069 electrons
N(Total)           :       28.000015150058 electrons
E(X)               :      -58.534628767760 Eh       
E(C)               :       -1.236768508125 Eh       
E(XC)              :      -59.771397275884 Eh       
DFET-embed. en.    :        0.000000000000 Eh       

---------------
SCF CONVERGENCE
---------------

  Last Energy change         ...   -1.5656e-08  Tolerance :   1.0000e-06
  Last MAX-Density change    ...    8.9902e-05  Tolerance :   1.0000e-05
  Last RMS-Density change    ...    9.8491e-07  Tolerance :   1.0000e-06
  Last DIIS Error            ...    1.2746e-05  Tolerance :   1.0000e-06

             **** THE GBW FILE WAS UPDATED (37_CoH.gbw) ****
             **** DENSITY FILE WAS UPDATED (37_CoH.scfp) ****
             **** ENERGY FILE WAS UPDATED (37_CoH.en.tmp) ****
----------------------
UHF SPIN CONTAMINATION
----------------------

Warning: in a DFT calculation there is little theoretical justification to 
         calculate <S**2> as in Hartree-Fock theory. We will do it anyways
         but you should keep in mind that the values have only limited relevance

Expectation value of <S**2>     :     2.019576
Ideal value S*(S+1) for S=1.0   :     2.000000
Deviation                       :     0.019576

             **** THE GBW FILE WAS UPDATED (37_CoH.gbw) ****
             **** DENSITY FILE WAS UPDATED (37_CoH.scfp) ****
----------------
ORBITAL ENERGIES
----------------
                 SPIN UP ORBITALS
  NO   OCC          E(Eh)            E(eV) 
   0   1.0000    -276.601508     -7526.7097 
   1   1.0000     -32.378771      -881.0712 
   2   1.0000     -28.034735      -762.8639 
   3   1.0000     -28.034735      -762.8639 
   4   1.0000     -28.033751      -762.8372 
   5   1.0000      -3.560683       -96.8911 
   6   1.0000      -2.264573       -61.6222 
   7   1.0000      -2.264573       -61.6222 
   8   1.0000      -2.264479       -61.6196 
   9   1.0000      -0.269051        -7.3213 
  10   1.0000      -0.208438        -5.6719 
  11   1.0000      -0.187288        -5.0964 
  12   1.0000      -0.172253        -4.6872 
  13   1.0000      -0.172253        -4.6872 
  14   1.0000      -0.168986        -4.5983 
  15   0.0000      -0.090543        -2.4638 
  16   0.0000      -0.029235        -0.7955 
  17   0.0000      -0.029235        -0.7955 
  18   0.0000       0.006980         0.1899 
  19   0.0000       0.019129         0.5205 
  20   0.0000       0.037138         1.0106 
  21   0.0000       0.037138         1.0106 
  22   0.0000       0.058672         1.5965 
  23   0.0000       0.066993         1.8230 
  24   0.0000       0.066993         1.8230 
  25   0.0000       0.068013         1.8507 
  26   0.0000       0.068041         1.8515 
  27   0.0000       0.076022         2.0687 
  28   0.0000       0.123462         3.3596 
  29   0.0000       0.181555         4.9404 
  30   0.0000       0.191477         5.2104 
  31   0.0000       0.191477         5.2104 
  32   0.0000       0.222530         6.0554 
  33   0.0000       0.259954         7.0737 
  34   0.0000       0.259954         7.0737 
  35   0.0000       0.306861         8.3501 
  36   0.0000       0.307948         8.3797 
  37   0.0000       0.324637         8.8338 
  38   0.0000       0.330772         9.0008 
  39   0.0000       0.330772         9.0008 
  40   0.0000       0.532089        14.4789 
  41   0.0000       0.561299        15.2737 
  42   0.0000       0.691017        18.8035 
  43   0.0000       0.724703        19.7202 
  44   0.0000       0.725310        19.7367 
  45   0.0000       0.801060        21.7979 
  46   0.0000       0.801060        21.7979 
  47   0.0000       0.885746        24.1024 
  48   0.0000       0.894414        24.3382 
  49   0.0000       0.894414        24.3382 
  50   0.0000       0.974297        26.5120 
  51   0.0000       0.974297        26.5120 
  52   0.0000       0.985730        26.8231 
  53   0.0000       0.985730        26.8231 
  54   0.0000       1.076623        29.2964 
  55   0.0000       1.146234        31.1906 
  56   0.0000       1.147327        31.2203 
  57   0.0000       1.185009        32.2457 
  58   0.0000       1.185009        32.2457 
  59   0.0000       1.243453        33.8361 
  60   0.0000       1.255732        34.1702 
  61   0.0000       1.420522        38.6544 
  62   0.0000       1.444002        39.2933 
  63   0.0000       1.750858        47.6433 
  64   0.0000       1.750858        47.6433 
  65   0.0000       2.214813        60.2681 
  66   0.0000       3.018978        82.1506 
  67   0.0000       3.096449        84.2587 
  68   0.0000       3.096449        84.2587 
  69   0.0000       3.120163        84.9040 
  70   0.0000       3.120163        84.9040 
  71   0.0000       3.132115        85.2292 
  72   0.0000       3.173774        86.3628 
  73   0.0000       3.188967        86.7762 
  74   0.0000       3.204595        87.2015 
  75   0.0000       3.350462        91.1707 
  76   0.0000       3.350462        91.1707 
  77   0.0000       3.643232        99.1374 
  78   0.0000       3.645178        99.1903 
  79   0.0000       3.666919        99.7819 
  80   0.0000       3.677668       100.0744 
  81   0.0000       3.677668       100.0744 
  82   0.0000       3.898031       106.0708 
  83   0.0000       3.997036       108.7649 
  84   0.0000       3.997063       108.7656 
  85   0.0000       4.011246       109.1516 
  86   0.0000       4.011246       109.1516 
  87   0.0000       4.122783       112.1866 
  88   0.0000       4.122783       112.1866 
  89   0.0000       4.157319       113.1264 
  90   0.0000       4.164350       113.3177 
  91   0.0000       4.815057       131.0244 
  92   0.0000       4.815057       131.0244 
  93   0.0000       4.969130       135.2169 
  94   0.0000       5.046709       137.3279 
  95   0.0000       5.078890       138.2036 
  96   0.0000       5.402484       147.0091 
  97   0.0000       5.417551       147.4191 
  98   0.0000       5.417551       147.4191 
  99   0.0000       6.716938       182.7772 
 100   0.0000      10.332146       281.1520 
 101   0.0000      10.332146       281.1520 
 102   0.0000      10.372732       282.2564 
 103   0.0000      10.406394       283.1724 
 104   0.0000      10.426118       283.7091 
 105   0.0000      10.426118       283.7091 
 106   0.0000      10.635189       289.3982 
 107   0.0000      11.479390       312.3701 
 108   0.0000      11.479420       312.3709 
 109   0.0000      11.505052       313.0684 
 110   0.0000      11.505052       313.0684 
 111   0.0000      11.515251       313.3459 
 112   0.0000      11.539463       314.0048 
 113   0.0000      11.718372       318.8731 
 114   0.0000      11.718372       318.8731 
 115   0.0000      12.023721       327.1821 

                 SPIN DOWN ORBITALS
  NO   OCC          E(Eh)            E(eV) 
   0   1.0000    -276.600806     -7526.6906 
   1   1.0000     -32.350173      -880.2930 
   2   1.0000     -28.013535      -762.2870 
   3   1.0000     -28.009873      -762.1874 
   4   1.0000     -28.009873      -762.1874 
   5   1.0000      -3.487000       -94.8861 
   6   1.0000      -2.193130       -59.6781 
   7   1.0000      -2.189021       -59.5663 
   8   1.0000      -2.189021       -59.5663 
   9   1.0000      -0.259310        -7.0562 
  10   1.0000      -0.141949        -3.8626 
  11   1.0000      -0.141949        -3.8626 
  12   1.0000      -0.139391        -3.7930 
  13   0.0000      -0.105318        -2.8658 
  14   0.0000      -0.072903        -1.9838 
  15   0.0000      -0.063660        -1.7323 
  16   0.0000      -0.013649        -0.3714 
  17   0.0000      -0.013649        -0.3714 
  18   0.0000       0.013053         0.3552 
  19   0.0000       0.023132         0.6295 
  20   0.0000       0.045747         1.2448 
  21   0.0000       0.045747         1.2448 
  22   0.0000       0.062173         1.6918 
  23   0.0000       0.071663         1.9501 
  24   0.0000       0.071663         1.9501 
  25   0.0000       0.076493         2.0815 
  26   0.0000       0.080861         2.2004 
  27   0.0000       0.084349         2.2953 
  28   0.0000       0.134961         3.6725 
  29   0.0000       0.184640         5.0243 
  30   0.0000       0.211138         5.7454 
  31   0.0000       0.211138         5.7454 
  32   0.0000       0.229488         6.2447 
  33   0.0000       0.263105         7.1594 
  34   0.0000       0.263105         7.1594 
  35   0.0000       0.323704         8.8084 
  36   0.0000       0.336841         9.1659 
  37   0.0000       0.337465         9.1829 
  38   0.0000       0.338676         9.2158 
  39   0.0000       0.338676         9.2158 
  40   0.0000       0.551882        15.0175 
  41   0.0000       0.560660        15.2563 
  42   0.0000       0.699420        19.0322 
  43   0.0000       0.722448        19.6588 
  44   0.0000       0.726093        19.7580 
  45   0.0000       0.826753        22.4971 
  46   0.0000       0.826753        22.4971 
  47   0.0000       0.884719        24.0744 
  48   0.0000       0.893005        24.2999 
  49   0.0000       0.893005        24.2999 
  50   0.0000       0.983258        26.7558 
  51   0.0000       0.983258        26.7558 
  52   0.0000       1.035736        28.1838 
  53   0.0000       1.035736        28.1838 
  54   0.0000       1.110135        30.2083 
  55   0.0000       1.156550        31.4713 
  56   0.0000       1.174015        31.9466 
  57   0.0000       1.203051        32.7367 
  58   0.0000       1.203051        32.7367 
  59   0.0000       1.285106        34.9695 
  60   0.0000       1.323986        36.0275 
  61   0.0000       1.437739        39.1229 
  62   0.0000       1.460269        39.7359 
  63   0.0000       1.764674        48.0192 
  64   0.0000       1.764674        48.0192 
  65   0.0000       2.231605        60.7251 
  66   0.0000       3.029922        82.4484 
  67   0.0000       3.134193        85.2857 
  68   0.0000       3.134193        85.2857 
  69   0.0000       3.180804        86.5541 
  70   0.0000       3.191716        86.8510 
  71   0.0000       3.191716        86.8510 
  72   0.0000       3.192037        86.8597 
  73   0.0000       3.217435        87.5508 
  74   0.0000       3.257705        88.6467 
  75   0.0000       3.409530        92.7780 
  76   0.0000       3.409530        92.7780 
  77   0.0000       3.645487        99.1987 
  78   0.0000       3.650267        99.3288 
  79   0.0000       3.701760       100.7300 
  80   0.0000       3.701760       100.7300 
  81   0.0000       3.710721       100.9738 
  82   0.0000       3.935724       107.0965 
  83   0.0000       4.039260       109.9138 
  84   0.0000       4.039260       109.9138 
  85   0.0000       4.067133       110.6723 
  86   0.0000       4.068290       110.7038 
  87   0.0000       4.125863       112.2704 
  88   0.0000       4.125863       112.2704 
  89   0.0000       4.173122       113.5564 
  90   0.0000       4.192147       114.0741 
  91   0.0000       4.840577       131.7188 
  92   0.0000       4.840577       131.7188 
  93   0.0000       4.997385       135.9858 
  94   0.0000       5.115889       139.2104 
  95   0.0000       5.155653       140.2924 
  96   0.0000       5.454122       148.4142 
  97   0.0000       5.454122       148.4142 
  98   0.0000       5.455374       148.4483 
  99   0.0000       6.772288       184.2833 
 100   0.0000      10.431615       283.8587 
 101   0.0000      10.444342       284.2050 
 102   0.0000      10.444342       284.2050 
 103   0.0000      10.465171       284.7718 
 104   0.0000      10.525344       286.4092 
 105   0.0000      10.525344       286.4092 
 106   0.0000      10.754568       292.6467 
 107   0.0000      11.564388       314.6830 
 108   0.0000      11.564388       314.6830 
 109   0.0000      11.569475       314.8214 
 110   0.0000      11.571231       314.8692 
 111   0.0000      11.588910       315.3503 
 112   0.0000      11.595455       315.5284 
 113   0.0000      11.797052       321.0141 
 114   0.0000      11.797052       321.0141 
 115   0.0000      12.113918       329.6365 

                    ********************************
                    * MULLIKEN POPULATION ANALYSIS *
                    ********************************

--------------------------------------------
MULLIKEN ATOMIC CHARGES AND SPIN POPULATIONS
--------------------------------------------
   0 Co:    0.005202    2.091584
   1 H :   -0.005202   -0.091584
Sum of atomic charges         :    0.0000000
Sum of atomic spin populations:    2.0000000

-----------------------------------------------------
MULLIKEN REDUCED ORBITAL CHARGES AND SPIN POPULATIONS
-----------------------------------------------------
CHARGE
  0 Cos       :     6.868131  s :     6.868131
      pz      :     4.105521  p :    12.109341
      px      :     4.001910
      py      :     4.001910
      dz2     :     1.034166  d :     8.014176
      dxz     :     1.990442
      dyz     :     1.990442
      dx2y2   :     1.999266
      dxy     :     0.999861
      f0      :     0.002746  f :     0.003057
      f+1     :     0.000030
      f-1     :     0.000030
      f+2     :     0.000129
      f-2     :     0.000053
      f+3     :     0.000034
      f-3     :     0.000034
      g0      :     0.000039  g :     0.000093
      g+1     :     0.000003
      g-1     :     0.000003
      g+2     :     0.000011
      g-2     :     0.000008
      g+3     :     0.000007
      g-3     :     0.000007
      g+4     :     0.000015
      g-4     :     0.000000
  1 H s       :     1.003345  s :     1.003345
      pz      :    -0.014061  p :     0.000011
      px      :     0.007036
      py      :     0.007036
      dz2     :     0.000098  d :     0.001846
      dxz     :     0.000538
      dyz     :     0.000538
      dx2y2   :     0.000594
      dxy     :     0.000079

SPIN
  0 Cos       :     0.351334  s :     0.351334
      pz      :    -0.018954  p :    -0.018640
      px      :     0.000157
      py      :     0.000157
      dz2     :     0.753485  d :     1.759215
      dxz     :     0.002691
      dyz     :     0.002691
      dx2y2   :     0.000487
      dxy     :     0.999861
      f0      :    -0.000400  f :    -0.000379
      f+1     :     0.000001
      f-1     :     0.000001
      f+2     :    -0.000004
      f-2     :     0.000053
      f+3     :    -0.000015
      f-3     :    -0.000015
      g0      :     0.000073  g :     0.000055
      g+1     :    -0.000005
      g-1     :    -0.000005
      g+2     :    -0.000006
      g-2     :     0.000008
      g+3     :    -0.000004
      g-3     :    -0.000004
      g+4     :     0.000000
      g-4     :     0.000000
  1 H s       :    -0.083469  s :    -0.083469
      pz      :    -0.002276  p :    -0.007060
      px      :    -0.002392
      py      :    -0.002392
      dz2     :     0.000206  d :    -0.001056
      dxz     :    -0.000432
      dyz     :    -0.000432
      dx2y2   :    -0.000477
      dxy     :     0.000079


                     *******************************
                     * LOEWDIN POPULATION ANALYSIS *
                     *******************************

-------------------------------------------
LOEWDIN ATOMIC CHARGES AND SPIN POPULATIONS
-------------------------------------------
   0 Co:    0.611985    1.989606
   1 H :   -0.611985    0.010394

----------------------------------------------------
LOEWDIN REDUCED ORBITAL CHARGES AND SPIN POPULATIONS
----------------------------------------------------
CHARGE
  0 Cos       :     6.548382  s :     6.548382
      pz      :     4.061854  p :    11.989933
      px      :     3.964040
      py      :     3.964040
      dz2     :     1.038445  d :     7.829347
      dxz     :     1.904944
      dyz     :     1.904944
      dx2y2   :     1.986616
      dxy     :     0.994398
      f0      :     0.014496  f :     0.019574
      f+1     :     0.002158
      f-1     :     0.002158
      f+2     :     0.000492
      f-2     :     0.000203
      f+3     :     0.000034
      f-3     :     0.000034
      g0      :     0.000507  g :     0.000779
      g+1     :     0.000108
      g-1     :     0.000108
      g+2     :     0.000012
      g-2     :     0.000015
      g+3     :     0.000007
      g-3     :     0.000007
      g+4     :     0.000015
      g-4     :     0.000000
  1 H s       :     1.028200  s :     1.028200
      pz      :     0.180130  p :     0.302150
      px      :     0.061010
      py      :     0.061010
      dz2     :     0.127972  d :     0.281635
      dxz     :     0.067699
      dyz     :     0.067699
      dx2y2   :     0.012881
      dxy     :     0.005383

SPIN
  0 Cos       :     0.304446  s :     0.304446
      pz      :    -0.033650  p :    -0.033115
      px      :     0.000267
      py      :     0.000267
      dz2     :     0.718043  d :     1.720055
      dxz     :     0.003620
      dyz     :     0.003620
      dx2y2   :     0.000374
      dxy     :     0.994398
      f0      :    -0.002102  f :    -0.001875
      f+1     :     0.000030
      f-1     :     0.000030
      f+2     :    -0.000006
      f-2     :     0.000203
      f+3     :    -0.000015
      f-3     :    -0.000015
      g0      :     0.000029  g :     0.000096
      g+1     :     0.000027
      g-1     :     0.000027
      g+2     :     0.000006
      g-2     :     0.000015
      g+3     :    -0.000004
      g-3     :    -0.000004
      g+4     :     0.000000
      g-4     :     0.000000
  1 H s       :    -0.017029  s :    -0.017029
      pz      :     0.027169  p :     0.020136
      px      :    -0.003516
      py      :    -0.003516
      dz2     :     0.003095  d :     0.007286
      dxz     :    -0.000409
      dyz     :    -0.000409
      dx2y2   :    -0.000374
      dxy     :     0.005383


                      *****************************
                      * MAYER POPULATION ANALYSIS *
                      *****************************

  NA   - Mulliken gross atomic population
  ZA   - Total nuclear charge
  QA   - Mulliken gross atomic charge
  VA   - Mayer's total valence
  BVA  - Mayer's bonded valence
  FA   - Mayer's free valence

  ATOM       NA         ZA         QA         VA         BVA        FA
  0 Co    26.9948    27.0000     0.0052     2.9995     1.0409     1.9586
  1 H      1.0052     1.0000    -0.0052     1.0530     1.0409     0.0121

  Mayer bond orders larger than 0.100000
B(  0-Co,  1-H ) :   1.0409 

-------
TIMINGS
-------

Total SCF time: 0 days 0 hours 0 min 2 sec 

Total time                  ....       2.935 sec
Sum of individual times     ....       2.798 sec  ( 95.3%)

Fock matrix formation       ....       2.477 sec  ( 84.4%)
  Split-RI-J                ....       1.747 sec  ( 70.6% of F)
  XC integration            ....       0.672 sec  ( 27.1% of F)
    Basis function eval.    ....       0.077 sec  ( 11.5% of XC)
    Density eval.           ....       0.064 sec  (  9.5% of XC)
    XC-Functional eval.     ....       0.021 sec  (  3.2% of XC)
    XC-Potential eval.      ....       0.180 sec  ( 26.9% of XC)
Diagonalization             ....       0.049 sec  (  1.7%)
Density matrix formation    ....       0.008 sec  (  0.3%)
Population analysis         ....       0.006 sec  (  0.2%)
Initial guess               ....       0.115 sec  (  3.9%)
Orbital Transformation      ....       0.000 sec  (  0.0%)
Orbital Orthonormalization  ....       0.000 sec  (  0.0%)
DIIS solution               ....       0.021 sec  (  0.7%)
Grid generation             ....       0.123 sec  (  4.2%)


-------------------------------------------------------------------------------
                          DFT DISPERSION CORRECTION                            
                                                                               
                              DFTD3 V3.1  Rev 1                                
                          USING Becke-Johnson damping                          
-------------------------------------------------------------------------------
The TPSS functional is recognized
Active option DFTDOPT                   ...         4   

molecular C6(AA) [au] = 320.885859 


            DFT-D V3
 parameters
 s6 scaling factor         :     1.0000 
 a1 scaling factor         :     0.4535 
 s8 scaling factor         :     1.9435 
 a2 scaling factor         :     4.4752 
 ad hoc parameters k1-k3   :    16.0000     1.3333    -4.0000 

 Edisp/kcal,au: -0.313917904362  -0.000500259970 
 E6   /kcal   :  -0.138025168 
 E8   /kcal   :  -0.175892736 
 % E8         :  56.031444452 

-------------------------   ----------------
Dispersion correction           -0.000500260
-------------------------   ----------------


-------------------------   --------------------
FINAL SINGLE POINT ENERGY     -1383.398342950314
-------------------------   --------------------


                            ***************************************
                            *     ORCA property calculations      *
                            ***************************************

                                    ---------------------
                                    Active property flags
                                    ---------------------
   (+) Dipole Moment


------------------------------------------------------------------------------
                       ORCA ELECTRIC PROPERTIES CALCULATION
------------------------------------------------------------------------------

Dipole Moment Calculation                       ... on
Quadrupole Moment Calculation                   ... off
Polarizability Calculation                      ... off
GBWName                                         ... 37_CoH.gbw
Electron density file                           ... 37_CoH.scfp
The origin for moment calculation is the CENTER OF MASS  = ( 0.000000,  0.000000  0.501200)

-------------
DIPOLE MOMENT
-------------
                                X             Y             Z
Electronic contribution:     -0.00000      -0.00000      -2.55277
Nuclear contribution   :      0.00000       0.00000       1.52052
                        -----------------------------------------
Total Dipole Moment    :     -0.00000      -0.00000      -1.03226
                        -----------------------------------------
Magnitude (a.u.)       :      1.03226
Magnitude (Debye)      :      2.62379



--------------------
Rotational spectrum 
--------------------
 
Rotational constants in cm-1:     0.000000     7.355540     7.355540 
Rotational constants in MHz :     0.000000 220513.537195 220513.537195 

 Dipole components along the rotational axes: 
x,y,z [a.u.] :    -1.032256    -0.000000    -0.000000 
x,y,z [Debye]:    -2.623786    -0.000000    -0.000000 

 

Timings for individual modules:

Sum of individual times         ...        6.435 sec (=   0.107 min)
GTO integral calculation        ...        3.158 sec (=   0.053 min)  49.1 %
SCF iterations                  ...        3.276 sec (=   0.055 min)  50.9 %
                             ****ORCA TERMINATED NORMALLY****
TOTAL RUN TIME: 0 days 0 hours 0 minutes 7 seconds 27 msec
