
                                 *****************
                                 * O   R   C   A *
                                 *****************

           --- An Ab Initio, DFT and Semiempirical electronic structure package ---

                  #######################################################
                  #                        -***-                        #
                  #          Department of theory and spectroscopy      #
                  #               Directorship: Frank Neese             #
                  #        Max Planck Institute fuer Kohlenforschung    #
                  #                Kaiser Wilhelm Platz 1               #
                  #                 D-45470 Muelheim/Ruhr               #
                  #                      Germany                        #
                  #                                                     #
                  #                  All rights reserved                #
                  #                        -***-                        #
                  #######################################################


                         Program Version 4.2.0 -  RELEASE  -


 With contributions from (in alphabetic order):
   Daniel Aravena         : Magnetic Suceptibility
   Michael Atanasov       : Ab Initio Ligand Field Theory (pilot matlab implementation)
   Alexander A. Auer      : GIAO ZORA, VPT2
   Ute Becker             : Parallelization
   Giovanni Bistoni       : ED, misc. LED, open-shell LED, HFLED
   Martin Brehm           : Molecular dynamics
   Dmytro Bykov           : SCF Hessian
   Vijay G. Chilkuri      : MRCI spin determinant printing, contributions to CSF-ICE
   Dipayan Datta          : RHF DLPNO-CCSD density
   Achintya Kumar Dutta   : EOM-CC, STEOM-CC
   Dmitry Ganyushin       : Spin-Orbit,Spin-Spin,Magnetic field MRCI
   Miquel Garcia          : C-PCM Hessian, Gaussian charge scheme
   Yang Guo               : DLPNO-NEVPT2, CIM, IAO-localization
   Andreas Hansen         : Spin unrestricted coupled pair/coupled cluster methods
   Benjamin Helmich-Paris : CASSCF linear response (MC-RPA)
   Lee Huntington         : MR-EOM, pCC
   Robert Izsak           : Overlap fitted RIJCOSX, COSX-SCS-MP3, EOM
   Christian Kollmar      : KDIIS, OOCD, Brueckner-CCSD(T), CCSD density
   Simone Kossmann        : Meta GGA functionals, TD-DFT gradient, OOMP2, MP2 Hessian
   Martin Krupicka        : AUTO-CI
   Lucas Lang             : DCDCAS
   Dagmar Lenk            : GEPOL surface, SMD
   Dimitrios Liakos       : Extrapolation schemes; Compound Job, initial MDCI parallelization
   Dimitrios Manganas     : Further ROCIS development; embedding schemes
   Dimitrios Pantazis     : SARC Basis sets
   Taras Petrenko         : DFT Hessian,TD-DFT gradient, ASA, ECA, R-Raman, ABS, FL, XAS/XES, NRVS
   Peter Pinski           : DLPNO-MP2, DLPNO-MP2 Gradient
   Christoph Reimann      : Effective Core Potentials
   Marius Retegan         : Local ZFS, SOC
   Christoph Riplinger    : Optimizer, TS searches, QM/MM, DLPNO-CCSD(T), (RO)-DLPNO pert. Triples
   Tobias Risthaus        : Range-separated hybrids, TD-DFT gradient, RPA, STAB
   Michael Roemelt        : Original ROCIS implementation
   Masaaki Saitow         : Open-shell DLPNO-CCSD energy and density
   Barbara Sandhoefer     : DKH picture change effects
   Avijit Sen             : IP-ROCIS
   Kantharuban Sivalingam : CASSCF convergence, NEVPT2, FIC-MRCI
   Bernardo de Souza      : ESD, SOC TD-DFT
   Georgi Stoychev        : AutoAux, RI-MP2 NMR
   Willem Van den Heuvel  : Paramagnetic NMR
   Boris Wezisla          : Elementary symmetry handling
   Frank Wennmohs         : Technical directorship


 We gratefully acknowledge several colleagues who have allowed us to
 interface, adapt or use parts of their codes:
   Stefan Grimme, W. Hujo, H. Kruse,             : VdW corrections, initial TS optimization,
                  C. Bannwarth                     DFT functionals, gCP, sTDA/sTD-DF
   Ed Valeev, F. Pavosevic, A. Kumar             : LibInt (2-el integral package), F12 methods
   Garnet Chan, S. Sharma, J. Yang, R. Olivares  : DMRG
   Ulf Ekstrom                                   : XCFun DFT Library
   Mihaly Kallay                                 : mrcc  (arbitrary order and MRCC methods)
   Andreas Klamt, Michael Diedenhofen            : otool_cosmo (COSMO solvation model)
   Jiri Pittner, Ondrej Demel                    : Mk-CCSD
   Frank Weinhold                                : gennbo (NPA and NBO analysis)
   Christopher J. Cramer and Donald G. Truhlar   : smd solvation model
   Lars Goerigk                                  : TD-DFT with DH, B97 family of functionals
   V. Asgeirsson, H. Jonsson                     : NEB implementation
   FAccTs GmbH                                   : IRC, NEB, NEB-TS, Multilevel, MM, QM/MM, CI optimization
   S Lehtola, MJT Oliveira, MAL Marques          : LibXC Library


 Your calculation uses the libint2 library for the computation of 2-el integrals
 For citations please refer to: http://libint.valeyev.net

 Your ORCA version has been built with support for libXC version: 4.2.3
 For citations please refer to: https://tddft.org/programs/libxc/

 This ORCA versions uses:
   CBLAS   interface :  Fast vector & matrix operations
   LAPACKE interface :  Fast linear algebra routines
   SCALAPACK package :  Parallel linear algebra routines


Your calculation utilizes the atom-pairwise dispersion correction
with the Becke-Johnson damping scheme (D3BJ)
Cite in your paper:
S.Grimme, S.Ehrlich, L.Goerigk, J Comput Chem, (2011), 32, 1456–1465 
S.Grimme, J.Antony, S.Ehrlich and H.Krieg, J.Chem.Phys., 132, (2010), 154104 
   

----- Orbital basis set information -----
Your calculation utilizes the basis: aug-cc-pVTZ 
    H, B-Ne : Obtained from the ccRepo (grant-hill.group.shef.ac.uk/ccrepo) Feb. 2017
              R. A. Kendall, T. H. Dunning, Jr., R. J. Harrison, J. Chem. Phys. 96, 6796 (1992)
         He : Obtained from the ccRepo (grant-hill.group.shef.ac.uk/ccrepo) Feb. 2017
              D. E. Woon, T. H. Dunning, Jr., J. Chem. Phys. 100, 2975 (1994)
  Li-Be, Na : Obtained from the ccRepo (grant-hill.group.shef.ac.uk/ccrepo) Feb. 2017
              B. P. Prascher, D. E. Woon, K. A. Peterson, T. H. Dunning, Jr., A. K. Wilson, Theor. Chem. Acc. 128, 69 (2011)
         Mg : Obtained from the Peterson Research Group Website (tyr0.chem.wsu.edu/~kipeters) Feb. 2017
              B. P. Prascher, D. E. Woon, K. A. Peterson, T. H. Dunning, Jr., A. K. Wilson, Theor. Chem. Acc. 128, 69 (2011)
      Al-Ar : Obtained from the ccRepo (grant-hill.group.shef.ac.uk/ccrepo) Feb. 2017
              D. E. Woon, T. H. Dunning, Jr., J. Chem. Phys. 98, 1358 (1993)
      Sc-Zn : Obtained from the ccRepo (grant-hill.group.shef.ac.uk/ccrepo) Feb. 2017
              N. B. Balabanov, K. A. Peterson, J. Chem. Phys. 123, 064107 (2005)
              N. B. Balabanov, K. A. Peterson, J. Chem. Phys. 125, 074110 (2006)
      Ga-Kr : Obtained from the ccRepo (grant-hill.group.shef.ac.uk/ccrepo) Feb. 2017
              A. K. Wilson, D. E. Woon, K. A. Peterson, T. H. Dunning, Jr., J. Chem. Phys. 110, 7667 (1999)
     Ag, Au : Obtained from the Peterson Research Group Website (tyr0.chem.wsu.edu/~kipeters) Feb. 2017
              K. A. Peterson, C. Puzzarini, Theor. Chem. Acc. 114, 283 (2005)

----- AuxJ basis set information -----
Your calculation utilizes the auxiliary basis: def2/J
   F. Weigend, Phys. Chem. Chem. Phys. 8, 1057 (2006).

================================================================================
                                        WARNINGS
                       Please study these warnings very carefully!
================================================================================


WARNING: your system is open-shell and RHF/RKS was chosen
  ===> : WILL SWITCH to UHF/UKS


INFO   : the flag for use of LIBINT has been found!

================================================================================
                                       INPUT FILE
================================================================================
NAME = 39_CoCl.in
|  1> #
|  2> # 39_CoCl tpss/aug-cc-pvtz
|  3> #
|  4> ! tpss d3bj aug-cc-pvtz def2/j grid4 nofinalgrid
|  5> 
|  6> *xyz 0 3
|  7>   Co  0.00000000000000      0.00000000000000     -0.04491550120186
|  8>   Cl  0.00000000000000      0.00000000000000      2.04491550120186
|  9> *
| 10> 
| 11> %pal
| 12> nprocs 24
| 13> end
| 14> 
| 15> 
| 16>                          ****END OF INPUT****
================================================================================

                       ****************************
                       * Single Point Calculation *
                       ****************************

---------------------------------
CARTESIAN COORDINATES (ANGSTROEM)
---------------------------------
  Co     0.000000    0.000000   -0.044916
  Cl     0.000000    0.000000    2.044916

----------------------------
CARTESIAN COORDINATES (A.U.)
----------------------------
  NO LB      ZA    FRAG     MASS         X           Y           Z
   0 Co   27.0000    0    58.930    0.000000    0.000000   -0.084878
   1 Cl   17.0000    0    35.453    0.000000    0.000000    3.864330

--------------------------------
INTERNAL COORDINATES (ANGSTROEM)
--------------------------------
 Co     0   0   0     0.000000000000     0.00000000     0.00000000
 Cl     1   0   0     2.089831002404     0.00000000     0.00000000

---------------------------
INTERNAL COORDINATES (A.U.)
---------------------------
 Co     0   0   0     0.000000000000     0.00000000     0.00000000
 Cl     1   0   0     3.949208260721     0.00000000     0.00000000

---------------------
BASIS SET INFORMATION
---------------------
There are 2 groups of distinct atoms

 Group   1 Type Co  : 116s77p23d3f2g contracted to 8s7p5d3f2g pattern {19191919191911/151515151511/77711/111/11}
 Group   2 Type Cl  : 42s17p3d2f contracted to 6s5p3d2f pattern {131313111/77111/111/11}

Atom   0Co   basis set group =>   1
Atom   1Cl   basis set group =>   2
---------------------------------
AUXILIARY/J BASIS SET INFORMATION
---------------------------------
There are 2 groups of distinct atoms

 Group   1 Type Co  : 19s5p5d3f3g contracted to 8s5p5d2f3g pattern {121111111/11111/11111/21/111}
 Group   2 Type Cl  : 14s5p5d2f1g contracted to 8s4p3d1f1g pattern {71111111/2111/311/2/1}

Atom   0Co   basis set group =>   1
Atom   1Cl   basis set group =>   2


           ************************************************************
           *        Program running with 24 parallel MPI-processes    *
           *              working on a common directory               *
           ************************************************************
------------------------------------------------------------------------------
                           ORCA GTO INTEGRAL CALCULATION
                           -- RI-GTO INTEGRALS CHOSEN --
------------------------------------------------------------------------------

                         BASIS SET STATISTICS AND STARTUP INFO

Gaussian basis set:
 # of primitive gaussian shells          ...  285
 # of primitive gaussian functions       ...  623
 # of contracted shells                  ...   41
 # of contracted basis functions         ...  143
 Highest angular momentum                ...    4
 Maximum contraction depth               ...   19
Auxiliary gaussian basis set:
 # of primitive gaussian shells          ...   62
 # of primitive gaussian functions       ...  184
 # of contracted shells                  ...   40
 # of contracted aux-basis functions     ...  140
 Highest angular momentum                ...    4
 Maximum contraction depth               ...   12
Ratio of auxiliary to basis functions    ...  0.98
Integral package used                  ... LIBINT
 One Electron integrals                  ... done
 Ordering auxiliary basis shells         ... done
 Integral threshhold             Thresh  ...  1.000e-10
 Primitive cut-off               TCut    ...  1.000e-11
 Pre-screening matrix                    ... done
 Shell pair data                         ... 
 Ordering of the shell pairs             ... done (   0.000 sec) 861 of 861 pairs
 Determination of significant pairs      ... done (   0.000 sec)
 Creation of shell pair data             ... done (   0.001 sec)
 Storage of shell pair data              ... done (   0.003 sec)
 Shell pair data done in (   0.004 sec)
 Computing two index integrals           ... done
 Cholesky decomposition of the V-matrix  ... done


Timings:
 Total evaluation time                   ...   3.207 sec (  0.053 min)
 One electron matrix time                ...   0.044 sec (  0.001 min) =  1.4%
 Schwartz matrix evaluation time         ...   3.120 sec (  0.052 min) = 97.3%
 Two index repulsion integral time       ...   0.001 sec (  0.000 min) =  0.0%
 Cholesky decomposition of V             ...   0.001 sec (  0.000 min) =  0.0%
 Three index repulsion integral time     ...   0.000 sec (  0.000 min) =  0.0%



           ************************************************************
           *        Program running with 24 parallel MPI-processes    *
           *              working on a common directory               *
           ************************************************************
-------------------------------------------------------------------------------
                                 ORCA SCF
-------------------------------------------------------------------------------

------------
SCF SETTINGS
------------
Hamiltonian:
 Density Functional     Method          .... DFT(GTOs)
 Exchange Functional    Exchange        .... TPSS
 Correlation Functional Correlation     .... TPSS
 LDA part of GGA corr.  LDAOpt          .... PW91-LDA
 Gradients option       PostSCFGGA      .... off
   Density functional embedding theory  .... OFF
   NL short-range parameter             ....  5.000000
 RI-approximation to the Coulomb term is turned on
   Number of auxiliary basis functions  .... 140


General Settings:
 Integral files         IntName         .... 39_CoCl
 Hartree-Fock type      HFTyp           .... UHF
 Total Charge           Charge          ....    0
 Multiplicity           Mult            ....    3
 Number of Electrons    NEL             ....   44
 Basis Dimension        Dim             ....  143
 Nuclear Repulsion      ENuc            ....    116.2258279882 Eh

Convergence Acceleration:
 DIIS                   CNVDIIS         .... on
   Start iteration      DIISMaxIt       ....    12
   Startup error        DIISStart       ....  0.200000
   # of expansion vecs  DIISMaxEq       ....     5
   Bias factor          DIISBfac        ....   1.050
   Max. coefficient     DIISMaxC        ....  10.000
 Newton-Raphson         CNVNR           .... off
 SOSCF                  CNVSOSCF        .... off
 Level Shifting         CNVShift        .... on
   Level shift para.    LevelShift      ....    0.2500
   Turn off err/grad.   ShiftErr        ....    0.0010
 Zerner damping         CNVZerner       .... off
 Static damping         CNVDamp         .... on
   Fraction old density DampFac         ....    0.7000
   Max. Damping (<1)    DampMax         ....    0.9800
   Min. Damping (>=0)   DampMin         ....    0.0000
   Turn off err/grad.   DampErr         ....    0.1000
 Fernandez-Rico         CNVRico         .... off

SCF Procedure:
 Maximum # iterations   MaxIter         ....   125
 SCF integral mode      SCFMode         .... Direct
   Integral package                     .... LIBINT
 Reset frequency        DirectResetFreq ....    20
 Integral Threshold     Thresh          ....  1.000e-10 Eh
 Primitive CutOff       TCut            ....  1.000e-11 Eh

Convergence Tolerance:
 Convergence Check Mode ConvCheckMode   .... Total+1el-Energy
 Convergence forced     ConvForced      .... 0
 Energy Change          TolE            ....  1.000e-06 Eh
 1-El. energy change                    ....  1.000e-03 Eh
 DIIS Error             TolErr          ....  1.000e-06


Diagonalization of the overlap matrix:
Smallest eigenvalue                        ... 1.371e-04
Time for diagonalization                   ...    0.007 sec
Threshold for overlap eigenvalues          ... 1.000e-08
Number of eigenvalues below threshold      ... 0
Time for construction of square roots      ...    0.003 sec
Total time needed                          ...    0.010 sec

-------------------
DFT GRID GENERATION
-------------------

General Integration Accuracy     IntAcc      ...  4.670
Radial Grid Type                 RadialGrid  ... Gauss-Chebyshev
Angular Grid (max. acc.)         AngularGrid ... Lebedev-302
Angular grid pruning method      GridPruning ... 3 (G Style)
Weight generation scheme         WeightScheme... Becke
Basis function cutoff            BFCut       ...    1.0000e-10
Integration weight cutoff        WCut        ...    1.0000e-14
Grids for H and He will be reduced by one unit

# of grid points (after initial pruning)     ...  16378 (   0.0 sec)
# of grid points (after weights+screening)   ...  16349 (   0.0 sec)
nearest neighbour list constructed           ...    0.0 sec
Grid point re-assignment to atoms done       ...    0.0 sec
Grid point division into batches done        ...    0.1 sec
Reduced shell lists constructed in    0.1 sec

Total number of grid points                  ...    16349
Total number of batches                      ...      257
Average number of points per batch           ...       63
Average number of grid points per atom       ...     8174
Average number of shells per batch           ...    13.00 (31.71%)
Average number of basis functions per batch  ...    30.17 (21.10%)
Average number of large shells per batch     ...     6.83 (52.56%)
Average number of large basis fcns per batch ...    17.83 (59.12%)
Maximum spatial batch extension              ...  24.49, 24.19, 17.58 au
Average spatial batch extension              ...   0.85,  0.84,  0.65 au

Time for grid setup =    0.173 sec

------------------------------
INITIAL GUESS: MODEL POTENTIAL
------------------------------
Loading Hartree-Fock densities                     ... done
Calculating cut-offs                               ... done
Setting up the integral package                    ... done
Initializing the effective Hamiltonian             ... done
Starting the Coulomb interaction                   ... done (   0.0 sec)
Reading the grid                                   ... done
Mapping shells                                     ... done
Starting the XC term evaluation                    ... done (   0.0 sec)
  promolecular density results
     # of electrons  =     44.000019281
     EX              =    -85.122161300
     EC              =     -1.873884553
     EX+EC           =    -86.996045853
Transforming the Hamiltonian                       ... done (   0.0 sec)
Diagonalizing the Hamiltonian                      ... done (   0.0 sec)
Back transforming the eigenvectors                 ... done (   0.0 sec)
Now organizing SCF variables                       ... done
                      ------------------
                      INITIAL GUESS DONE (   0.3 sec)
                      ------------------
--------------
SCF ITERATIONS
--------------
ITER       Energy         Delta-E        Max-DP      RMS-DP      [F,P]     Damp
               ***  Starting incremental Fock matrix formation  ***
  0  -1842.9647094682   0.000000000000 0.06630455  0.00129585  0.3657970 0.7000
  1  -1843.0102734688  -0.045564000577 0.03851271  0.00058627  0.0684570 0.7000
                               ***Turning on DIIS***
  2  -1843.0296951121  -0.019421643235 0.15126742  0.00143993  0.0648487 0.0000
  3  -1843.0656323807  -0.035937268653 0.01678067  0.00025054  0.1753842 0.7000
  4  -1843.0753374691  -0.009705088341 0.02551760  0.00025599  0.1333734 0.7000
  5  -1843.0835341063  -0.008196637267 0.09618292  0.00090668  0.0944199 0.0000
  6  -1843.0994864327  -0.015952326335 0.04972040  0.00037026  0.0199919 0.0000
  7  -1843.1025710079  -0.003084575211 0.05906551  0.00044425  0.0142510 0.0000
  8  -1843.1059630388  -0.003392030958 0.05669818  0.00038395  0.0147402 0.0000
  9  -1843.1083929611  -0.002429922228 0.05278243  0.00035288  0.0131958 0.0000
 10  -1843.1104576754  -0.002064714308 0.04818277  0.00032376  0.0119986 0.0000
 11  -1843.1121491594  -0.001691484002 0.04493049  0.00029997  0.0107275 0.0000
 12  -1843.1135087049  -0.001359545507 0.04586213  0.00032096  0.0097182 0.0000
 13  -1843.1144454216  -0.000936716752 0.02922787  0.00020373  0.0150652 0.0000
 14  -1843.1153138170  -0.000868395414 0.02902318  0.00019783  0.0068367 0.0000
 15  -1843.1158680847  -0.000554267633 0.02553407  0.00017601  0.0061683 0.0000
 16  -1843.1162109434  -0.000342858708 0.01842293  0.00012424  0.0092102 0.0000
 17  -1843.1165366609  -0.000325717556 0.01667276  0.00011460  0.0041479 0.0000
 18  -1843.1167156752  -0.000179014307 0.01293360  0.00008815  0.0041825 0.0000
 19  -1843.1168581924  -0.000142517186 0.01132680  0.00007977  0.0028593 0.0000
               *** Restarting incremental Fock matrix formation ***
                                   *** Resetting DIIS ***
 20  -1843.1169333666  -0.000075174193 0.00886971  0.00007347  0.0047625 0.0000
 21  -1843.1169486439  -0.000015277265 0.00611503  0.00005846  0.0106908 0.0000
 22  -1843.1170491689  -0.000100525035 0.00478154  0.00003577  0.0031513 0.0000
 23  -1843.1170795026  -0.000030333724 0.00420732  0.00003036  0.0016600 0.0000
 24  -1843.1171000656  -0.000020562909 0.00388353  0.00002895  0.0011378 0.0000
 25  -1843.1171163346  -0.000016269083 0.01574894  0.00011421  0.0009903 0.0000
 26  -1843.1171419080  -0.000025573326 0.00055226  0.00001012  0.0035552 0.0000
 27  -1843.1171522796  -0.000010371640 0.00050209  0.00000730  0.0014261 0.0000
 28  -1843.1171550847  -0.000002805097 0.00243566  0.00002232  0.0003407 0.0000
 29  -1843.1171568736  -0.000001788906 0.00044344  0.00000586  0.0004112 0.0000
 30  -1843.1171569004  -0.000000026828 0.00079749  0.00000958  0.0006353 0.0000
 31  -1843.1171577810  -0.000000880594 0.00032512  0.00000379  0.0001162 0.0000
 32  -1843.1171577748   0.000000006208 0.00022916  0.00000303  0.0000758 0.0000
                 **** Energy Check signals convergence ****

               *****************************************************
               *                     SUCCESS                       *
               *           SCF CONVERGED AFTER  33 CYCLES          *
               *****************************************************


----------------
TOTAL SCF ENERGY
----------------

Total Energy       :        -1843.11715770 Eh          -50153.76763 eV

Components:
Nuclear Repulsion  :          116.22582799 Eh            3162.66557 eV
Electronic Energy  :        -1959.34298569 Eh          -53316.43320 eV
One Electron Energy:        -2784.73804351 Eh          -75776.57457 eV
Two Electron Energy:          825.39505782 Eh           22460.14137 eV

Virial components:
Potential Energy   :        -3682.91142785 Eh         -100217.11489 eV
Kinetic Energy     :         1839.79427015 Eh           50063.34726 eV
Virial Ratio       :            2.00180612


DFT components:
N(Alpha)           :       23.000003272376 electrons
N(Beta)            :       21.000003400682 electrons
N(Total)           :       44.000006673057 electrons
E(X)               :      -85.814583841932 Eh       
E(C)               :       -1.886903235810 Eh       
E(XC)              :      -87.701487077743 Eh       
DFET-embed. en.    :        0.000000000000 Eh       

---------------
SCF CONVERGENCE
---------------

  Last Energy change         ...    7.1319e-08  Tolerance :   1.0000e-06
  Last MAX-Density change    ...    8.9706e-05  Tolerance :   1.0000e-05
  Last RMS-Density change    ...    9.2601e-07  Tolerance :   1.0000e-06
  Last DIIS Error            ...    2.5388e-05  Tolerance :   1.0000e-06

             **** THE GBW FILE WAS UPDATED (39_CoCl.gbw) ****
             **** DENSITY FILE WAS UPDATED (39_CoCl.scfp) ****
             **** ENERGY FILE WAS UPDATED (39_CoCl.en.tmp) ****
----------------------
UHF SPIN CONTAMINATION
----------------------

Warning: in a DFT calculation there is little theoretical justification to 
         calculate <S**2> as in Hartree-Fock theory. We will do it anyways
         but you should keep in mind that the values have only limited relevance

Expectation value of <S**2>     :     2.012575
Ideal value S*(S+1) for S=1.0   :     2.000000
Deviation                       :     0.012575

             **** THE GBW FILE WAS UPDATED (39_CoCl.gbw) ****
             **** DENSITY FILE WAS UPDATED (39_CoCl.scfp) ****
----------------
ORBITAL ENERGIES
----------------
                 SPIN UP ORBITALS
  NO   OCC          E(Eh)            E(eV) 
   0   1.0000    -276.647217     -7527.9535 
   1   1.0000    -100.984902     -2747.9389 
   2   1.0000     -32.426805      -882.3782 
   3   1.0000     -28.085191      -764.2369 
   4   1.0000     -28.081328      -764.1318 
   5   1.0000     -28.079476      -764.0814 
   6   1.0000      -9.208953      -250.5884 
   7   1.0000      -6.985494      -190.0850 
   8   1.0000      -6.982290      -189.9978 
   9   1.0000      -6.980900      -189.9600 
  10   1.0000      -3.614191       -98.3471 
  11   1.0000      -2.321157       -63.1619 
  12   1.0000      -2.320759       -63.1511 
  13   1.0000      -2.311191       -62.8907 
  14   1.0000      -0.712449       -19.3867 
  15   1.0000      -0.323274        -8.7967 
  16   1.0000      -0.291196        -7.9238 
  17   1.0000      -0.277296        -7.5456 
  18   1.0000      -0.248626        -6.7654 
  19   1.0000      -0.229736        -6.2514 
  20   1.0000      -0.212933        -5.7942 
  21   1.0000      -0.207010        -5.6330 
  22   1.0000      -0.201012        -5.4698 
  23   0.0000      -0.134254        -3.6532 
  24   0.0000      -0.025200        -0.6857 
  25   0.0000      -0.024031        -0.6539 
  26   0.0000       0.006384         0.1737 
  27   0.0000       0.007786         0.2119 
  28   0.0000       0.034094         0.9277 
  29   0.0000       0.034809         0.9472 
  30   0.0000       0.062762         1.7078 
  31   0.0000       0.064542         1.7563 
  32   0.0000       0.064590         1.7576 
  33   0.0000       0.073064         1.9882 
  34   0.0000       0.077934         2.1207 
  35   0.0000       0.078438         2.1344 
  36   0.0000       0.107406         2.9227 
  37   0.0000       0.116745         3.1768 
  38   0.0000       0.116763         3.1773 
  39   0.0000       0.127307         3.4642 
  40   0.0000       0.187110         5.0915 
  41   0.0000       0.188893         5.1401 
  42   0.0000       0.222320         6.0496 
  43   0.0000       0.246999         6.7212 
  44   0.0000       0.247353         6.7308 
  45   0.0000       0.256881         6.9901 
  46   0.0000       0.287733         7.8296 
  47   0.0000       0.289952         7.8900 
  48   0.0000       0.312091         8.4924 
  49   0.0000       0.312808         8.5119 
  50   0.0000       0.344222         9.3668 
  51   0.0000       0.384288        10.4570 
  52   0.0000       0.384702        10.4683 
  53   0.0000       0.444651        12.0996 
  54   0.0000       0.538210        14.6454 
  55   0.0000       0.568337        15.4652 
  56   0.0000       0.568778        15.4772 
  57   0.0000       0.702022        19.1030 
  58   0.0000       0.733691        19.9648 
  59   0.0000       0.733708        19.9652 
  60   0.0000       0.742687        20.2095 
  61   0.0000       0.743891        20.2423 
  62   0.0000       0.804616        21.8947 
  63   0.0000       0.810286        22.0490 
  64   0.0000       0.813038        22.1239 
  65   0.0000       0.894787        24.3484 
  66   0.0000       0.894864        24.3505 
  67   0.0000       0.923404        25.1271 
  68   0.0000       0.928043        25.2533 
  69   0.0000       0.928140        25.2560 
  70   0.0000       1.052359        28.6361 
  71   0.0000       1.052398        28.6372 
  72   0.0000       1.080520        29.4024 
  73   0.0000       1.085264        29.5315 
  74   0.0000       1.139760        31.0145 
  75   0.0000       1.186747        32.2930 
  76   0.0000       1.193951        32.4891 
  77   0.0000       1.196883        32.5688 
  78   0.0000       1.200401        32.6646 
  79   0.0000       1.202060        32.7097 
  80   0.0000       1.286674        35.0122 
  81   0.0000       1.289993        35.1025 
  82   0.0000       1.475894        40.1611 
  83   0.0000       1.652099        44.9559 
  84   0.0000       1.655990        45.0618 
  85   0.0000       1.958717        53.2994 
  86   0.0000       2.204654        59.9917 
  87   0.0000       2.204944        59.9996 
  88   0.0000       2.325807        63.2884 
  89   0.0000       2.328328        63.3570 
  90   0.0000       2.391525        65.0767 
  91   0.0000       2.407308        65.5062 
  92   0.0000       2.408725        65.5447 
  93   0.0000       2.745747        74.7156 
  94   0.0000       2.745748        74.7156 
  95   0.0000       2.785587        75.7997 
  96   0.0000       2.785786        75.8051 
  97   0.0000       2.812292        76.5264 
  98   0.0000       2.819382        76.7193 
  99   0.0000       2.821699        76.7823 
 100   0.0000       2.903253        79.0015 
 101   0.0000       3.095389        84.2298 
 102   0.0000       3.096511        84.2603 
 103   0.0000       3.139683        85.4351 
 104   0.0000       3.151846        85.7661 
 105   0.0000       3.171733        86.3072 
 106   0.0000       3.241088        88.1945 
 107   0.0000       3.253347        88.5281 
 108   0.0000       3.319798        90.3363 
 109   0.0000       3.320401        90.3527 
 110   0.0000       3.398696        92.4832 
 111   0.0000       3.759579       102.3033 
 112   0.0000       3.969767       108.0228 
 113   0.0000       3.969858       108.0253 
 114   0.0000       3.972999       108.1108 
 115   0.0000       3.973129       108.1143 
 116   0.0000       4.007553       109.0511 
 117   0.0000       4.014113       109.2296 
 118   0.0000       4.180824       113.7660 
 119   0.0000       4.187162       113.9385 
 120   0.0000       4.329419       117.8095 
 121   0.0000       5.013062       136.4124 
 122   0.0000       5.038216       137.0968 
 123   0.0000       5.233612       142.4138 
 124   0.0000       5.261739       143.1792 
 125   0.0000       5.910042       160.8204 
 126   0.0000       6.404210       174.2674 
 127   0.0000      10.288287       279.9585 
 128   0.0000      10.293798       280.1085 
 129   0.0000      10.299375       280.2602 
 130   0.0000      10.326963       281.0110 
 131   0.0000      10.358636       281.8728 
 132   0.0000      10.401878       283.0495 
 133   0.0000      10.424242       283.6580 
 134   0.0000      11.433718       311.1273 
 135   0.0000      11.437618       311.2334 
 136   0.0000      11.438633       311.2610 
 137   0.0000      11.439555       311.2861 
 138   0.0000      11.460116       311.8456 
 139   0.0000      11.474324       312.2322 
 140   0.0000      11.529412       313.7313 
 141   0.0000      11.555292       314.4355 
 142   0.0000      11.663018       317.3668 

                 SPIN DOWN ORBITALS
  NO   OCC          E(Eh)            E(eV) 
   0   1.0000    -276.646746     -7527.9407 
   1   1.0000    -100.984696     -2747.9333 
   2   1.0000     -32.394066      -881.4873 
   3   1.0000     -28.057613      -763.4865 
   4   1.0000     -28.055534      -763.4299 
   5   1.0000     -28.052915      -763.3586 
   6   1.0000      -9.208783      -250.5837 
   7   1.0000      -6.985774      -190.0926 
   8   1.0000      -6.981286      -189.9704 
   9   1.0000      -6.980857      -189.9588 
  10   1.0000      -3.530776       -96.0773 
  11   1.0000      -2.239303       -60.9345 
  12   1.0000      -2.231643       -60.7261 
  13   1.0000      -2.231371       -60.7187 
  14   1.0000      -0.711005       -19.3474 
  15   1.0000      -0.314741        -8.5645 
  16   1.0000      -0.271357        -7.3840 
  17   1.0000      -0.266486        -7.2514 
  18   1.0000      -0.183247        -4.9864 
  19   1.0000      -0.178388        -4.8542 
  20   1.0000      -0.173021        -4.7081 
  21   0.0000      -0.125452        -3.4137 
  22   0.0000      -0.118814        -3.2331 
  23   0.0000      -0.106689        -2.9032 
  24   0.0000      -0.021586        -0.5874 
  25   0.0000      -0.017557        -0.4777 
  26   0.0000       0.006724         0.1830 
  27   0.0000       0.008584         0.2336 
  28   0.0000       0.035288         0.9602 
  29   0.0000       0.037377         1.0171 
  30   0.0000       0.062885         1.7112 
  31   0.0000       0.063913         1.7392 
  32   0.0000       0.066992         1.8229 
  33   0.0000       0.075115         2.0440 
  34   0.0000       0.077976         2.1218 
  35   0.0000       0.078133         2.1261 
  36   0.0000       0.112351         3.0572 
  37   0.0000       0.116963         3.1827 
  38   0.0000       0.118040         3.2120 
  39   0.0000       0.127356         3.4655 
  40   0.0000       0.192311         5.2330 
  41   0.0000       0.196285         5.3412 
  42   0.0000       0.230271         6.2660 
  43   0.0000       0.248607         6.7649 
  44   0.0000       0.250907         6.8275 
  45   0.0000       0.257569         7.0088 
  46   0.0000       0.294297         8.0082 
  47   0.0000       0.301013         8.1910 
  48   0.0000       0.315185         8.5766 
  49   0.0000       0.325891         8.8679 
  50   0.0000       0.349582         9.5126 
  51   0.0000       0.386787        10.5250 
  52   0.0000       0.388444        10.5701 
  53   0.0000       0.449362        12.2278 
  54   0.0000       0.554565        15.0905 
  55   0.0000       0.570666        15.5286 
  56   0.0000       0.570692        15.5293 
  57   0.0000       0.709486        19.3061 
  58   0.0000       0.735951        20.0263 
  59   0.0000       0.736000        20.0276 
  60   0.0000       0.746759        20.3203 
  61   0.0000       0.748029        20.3549 
  62   0.0000       0.806234        21.9387 
  63   0.0000       0.830128        22.5889 
  64   0.0000       0.835118        22.7247 
  65   0.0000       0.900319        24.4989 
  66   0.0000       0.906961        24.6797 
  67   0.0000       0.936570        25.4854 
  68   0.0000       0.939274        25.5589 
  69   0.0000       0.942096        25.6357 
  70   0.0000       1.060044        28.8453 
  71   0.0000       1.061624        28.8883 
  72   0.0000       1.096066        29.8255 
  73   0.0000       1.103815        30.0363 
  74   0.0000       1.142498        31.0889 
  75   0.0000       1.206660        32.8349 
  76   0.0000       1.211766        32.9738 
  77   0.0000       1.218957        33.1695 
  78   0.0000       1.236955        33.6592 
  79   0.0000       1.238338        33.6969 
  80   0.0000       1.298440        35.3323 
  81   0.0000       1.318625        35.8816 
  82   0.0000       1.489585        40.5337 
  83   0.0000       1.668457        45.4010 
  84   0.0000       1.679175        45.6927 
  85   0.0000       1.973064        53.6898 
  86   0.0000       2.207074        60.0575 
  87   0.0000       2.207154        60.0597 
  88   0.0000       2.329611        63.3919 
  89   0.0000       2.329978        63.4019 
  90   0.0000       2.393252        65.1237 
  91   0.0000       2.412466        65.6465 
  92   0.0000       2.412904        65.6585 
  93   0.0000       2.748868        74.8005 
  94   0.0000       2.748890        74.8011 
  95   0.0000       2.788087        75.8677 
  96   0.0000       2.788618        75.8822 
  97   0.0000       2.821191        76.7685 
  98   0.0000       2.823467        76.8305 
  99   0.0000       2.823557        76.8329 
 100   0.0000       2.928385        79.6854 
 101   0.0000       3.145052        85.5812 
 102   0.0000       3.145103        85.5826 
 103   0.0000       3.189711        86.7964 
 104   0.0000       3.209627        87.3384 
 105   0.0000       3.232632        87.9644 
 106   0.0000       3.286201        89.4221 
 107   0.0000       3.307813        90.0102 
 108   0.0000       3.376990        91.8926 
 109   0.0000       3.380208        91.9801 
 110   0.0000       3.436022        93.4989 
 111   0.0000       3.802866       103.4813 
 112   0.0000       4.009203       109.0959 
 113   0.0000       4.012272       109.1795 
 114   0.0000       4.014942       109.2521 
 115   0.0000       4.016959       109.3070 
 116   0.0000       4.049311       110.1874 
 117   0.0000       4.074043       110.8603 
 118   0.0000       4.211857       114.6105 
 119   0.0000       4.234748       115.2333 
 120   0.0000       4.368350       118.8688 
 121   0.0000       5.077172       138.1569 
 122   0.0000       5.108734       139.0157 
 123   0.0000       5.304315       144.3377 
 124   0.0000       5.331598       145.0802 
 125   0.0000       5.921581       161.1344 
 126   0.0000       6.450581       175.5292 
 127   0.0000      10.387791       282.6662 
 128   0.0000      10.398681       282.9625 
 129   0.0000      10.418438       283.5001 
 130   0.0000      10.442372       284.1514 
 131   0.0000      10.475798       285.0610 
 132   0.0000      10.494881       285.5802 
 133   0.0000      10.520587       286.2797 
 134   0.0000      11.527430       313.6773 
 135   0.0000      11.527694       313.6845 
 136   0.0000      11.527782       313.6869 
 137   0.0000      11.528501       313.7065 
 138   0.0000      11.542292       314.0817 
 139   0.0000      11.550625       314.3085 
 140   0.0000      11.618836       316.1646 
 141   0.0000      11.624579       316.3209 
 142   0.0000      11.739510       319.4483 

                    ********************************
                    * MULLIKEN POPULATION ANALYSIS *
                    ********************************

--------------------------------------------
MULLIKEN ATOMIC CHARGES AND SPIN POPULATIONS
--------------------------------------------
   0 Co:    0.459762    1.971689
   1 Cl:   -0.459762    0.028311
Sum of atomic charges         :   -0.0000000
Sum of atomic spin populations:    2.0000000

-----------------------------------------------------
MULLIKEN REDUCED ORBITAL CHARGES AND SPIN POPULATIONS
-----------------------------------------------------
CHARGE
  0 Cos       :     6.517223  s :     6.517223
      pz      :     4.057620  p :    12.159559
      px      :     4.051123
      py      :     4.050817
      dz2     :     1.595495  d :     7.850517
      dxz     :     1.536058
      dyz     :     1.508630
      dx2y2   :     1.997280
      dxy     :     1.213054
      f0      :     0.003816  f :     0.012542
      f+1     :     0.004277
      f-1     :     0.004256
      f+2     :     0.000063
      f-2     :     0.000078
      f+3     :     0.000025
      f-3     :     0.000027
      g0      :     0.000148  g :     0.000395
      g+1     :     0.000096
      g-1     :     0.000096
      g+2     :     0.000004
      g-2     :     0.000021
      g+3     :     0.000004
      g-3     :     0.000003
      g+4     :     0.000018
      g-4     :     0.000005
  1 Cls       :     5.990807  s :     5.990807
      pz      :     3.615754  p :    11.435355
      px      :     3.910833
      py      :     3.908768
      dz2     :     0.005995  d :     0.029951
      dxz     :     0.011141
      dyz     :     0.010986
      dx2y2   :     0.001266
      dxy     :     0.000563
      f0      :    -0.000204  f :     0.003649
      f+1     :     0.001438
      f-1     :     0.001421
      f+2     :     0.000674
      f-2     :     0.000320
      f+3     :     0.000001
      f-3     :     0.000001

SPIN
  0 Cos       :     0.011692  s :     0.011692
      pz      :     0.002173  p :     0.012331
      px      :     0.005029
      py      :     0.005129
      dz2     :     0.232862  d :     1.947407
      dxz     :     0.450635
      dyz     :     0.478262
      dx2y2   :     0.000865
      dxy     :     0.784783
      f0      :     0.000115  f :     0.000308
      f+1     :     0.000091
      f-1     :     0.000112
      f+2     :     0.000006
      f-2     :     0.000011
      f+3     :    -0.000013
      f-3     :    -0.000015
      g0      :    -0.000030  g :    -0.000050
      g+1     :    -0.000006
      g-1     :    -0.000005
      g+2     :     0.000004
      g-2     :    -0.000008
      g+3     :     0.000002
      g-3     :     0.000002
      g+4     :    -0.000006
      g-4     :    -0.000002
  1 Cls       :    -0.005173  s :    -0.005173
      pz      :    -0.027736  p :     0.032456
      px      :     0.029030
      py      :     0.031162
      dz2     :     0.000045  d :     0.000897
      dxz     :     0.000295
      dyz     :     0.000392
      dx2y2   :    -0.000146
      dxy     :     0.000312
      f0      :     0.000001  f :     0.000132
      f+1     :    -0.000059
      f-1     :    -0.000044
      f+2     :    -0.000019
      f-2     :     0.000251
      f+3     :     0.000000
      f-3     :     0.000000


                     *******************************
                     * LOEWDIN POPULATION ANALYSIS *
                     *******************************

-------------------------------------------
LOEWDIN ATOMIC CHARGES AND SPIN POPULATIONS
-------------------------------------------
   0 Co:    0.055071    1.938025
   1 Cl:   -0.055071    0.061975

----------------------------------------------------
LOEWDIN REDUCED ORBITAL CHARGES AND SPIN POPULATIONS
----------------------------------------------------
CHARGE
  0 Cos       :     6.461611  s :     6.461611
      pz      :     4.185466  p :    12.359494
      px      :     4.087401
      py      :     4.086627
      dz2     :     1.704132  d :     8.019906
      dxz     :     1.571751
      dyz     :     1.545353
      dx2y2   :     1.989704
      dxy     :     1.208967
      f0      :     0.041730  f :     0.101615
      f+1     :     0.029793
      f-1     :     0.029674
      f+2     :     0.000216
      f-2     :     0.000151
      f+3     :     0.000025
      f-3     :     0.000027
      g0      :     0.001142  g :     0.002302
      g+1     :     0.000553
      g-1     :     0.000551
      g+2     :     0.000004
      g-2     :     0.000022
      g+3     :     0.000004
      g-3     :     0.000003
      g+4     :     0.000018
      g-4     :     0.000005
  1 Cls       :     5.619843  s :     5.619843
      pz      :     3.623674  p :    11.143279
      px      :     3.760624
      py      :     3.758980
      dz2     :     0.101326  d :     0.185149
      dxz     :     0.038746
      dyz     :     0.038090
      dx2y2   :     0.004660
      dxy     :     0.002328
      f0      :     0.047732  f :     0.106800
      f+1     :     0.026099
      f-1     :     0.025697
      f+2     :     0.004703
      f-2     :     0.002568
      f+3     :     0.000001
      f-3     :     0.000001

SPIN
  0 Cos       :     0.004653  s :     0.004653
      pz      :    -0.000060  p :     0.018482
      px      :     0.009050
      py      :     0.009492
      dz2     :     0.225151  d :     1.912613
      dxz     :     0.438288
      dyz     :     0.465087
      dx2y2   :     0.001368
      dxy     :     0.782720
      f0      :    -0.000268  f :     0.002295
      f+1     :     0.001206
      f-1     :     0.001312
      f+2     :     0.000005
      f-2     :     0.000067
      f+3     :    -0.000013
      f-3     :    -0.000015
      g0      :    -0.000059  g :    -0.000017
      g+1     :     0.000027
      g-1     :     0.000029
      g+2     :    -0.000000
      g-2     :    -0.000010
      g+3     :     0.000002
      g-3     :     0.000002
      g+4     :    -0.000006
      g-4     :    -0.000002
  1 Cls       :    -0.001745  s :    -0.001745
      pz      :    -0.016649  p :     0.035458
      px      :     0.025168
      py      :     0.026940
      dz2     :     0.002193  d :     0.015216
      dxz     :     0.005928
      dyz     :     0.006440
      dx2y2   :    -0.000454
      dxy     :     0.001108
      f0      :     0.000733  f :     0.013046
      f+1     :     0.005348
      f-1     :     0.005708
      f+2     :    -0.000208
      f-2     :     0.001465
      f+3     :     0.000000
      f-3     :     0.000000


                      *****************************
                      * MAYER POPULATION ANALYSIS *
                      *****************************

  NA   - Mulliken gross atomic population
  ZA   - Total nuclear charge
  QA   - Mulliken gross atomic charge
  VA   - Mayer's total valence
  BVA  - Mayer's bonded valence
  FA   - Mayer's free valence

  ATOM       NA         ZA         QA         VA         BVA        FA
  0 Co    26.5402    27.0000     0.4598     3.0285     1.1557     1.8728
  1 Cl    17.4598    17.0000    -0.4598     1.1619     1.1557     0.0062

  Mayer bond orders larger than 0.100000
B(  0-Co,  1-Cl) :   1.1557 

-------
TIMINGS
-------

Total SCF time: 0 days 0 hours 0 min 7 sec 

Total time                  ....       7.594 sec
Sum of individual times     ....       7.385 sec  ( 97.2%)

Fock matrix formation       ....       6.820 sec  ( 89.8%)
  Split-RI-J                ....       5.259 sec  ( 77.1% of F)
  XC integration            ....       1.275 sec  ( 18.7% of F)
    Basis function eval.    ....       0.169 sec  ( 13.2% of XC)
    Density eval.           ....       0.198 sec  ( 15.5% of XC)
    XC-Functional eval.     ....       0.046 sec  (  3.6% of XC)
    XC-Potential eval.      ....       0.502 sec  ( 39.3% of XC)
Diagonalization             ....       0.175 sec  (  2.3%)
Density matrix formation    ....       0.023 sec  (  0.3%)
Population analysis         ....       0.007 sec  (  0.1%)
Initial guess               ....       0.118 sec  (  1.6%)
Orbital Transformation      ....       0.000 sec  (  0.0%)
Orbital Orthonormalization  ....       0.000 sec  (  0.0%)
DIIS solution               ....       0.067 sec  (  0.9%)
Grid generation             ....       0.173 sec  (  2.3%)


-------------------------------------------------------------------------------
                          DFT DISPERSION CORRECTION                            
                                                                               
                              DFTD3 V3.1  Rev 1                                
                          USING Becke-Johnson damping                          
-------------------------------------------------------------------------------
The TPSS functional is recognized
Active option DFTDOPT                   ...         4   

molecular C6(AA) [au] = 587.026616 


            DFT-D V3
 parameters
 s6 scaling factor         :     1.0000 
 a1 scaling factor         :     0.4535 
 s8 scaling factor         :     1.9435 
 a2 scaling factor         :     4.4752 
 ad hoc parameters k1-k3   :    16.0000     1.3333    -4.0000 

 Edisp/kcal,au: -0.917224372786  -0.001461689923 
 E6   /kcal   :  -0.321026165 
 E8   /kcal   :  -0.596198208 
 % E8         :  65.000257928 

-------------------------   ----------------
Dispersion correction           -0.001461690
-------------------------   ----------------


-------------------------   --------------------
FINAL SINGLE POINT ENERGY     -1843.118619393422
-------------------------   --------------------


                            ***************************************
                            *     ORCA property calculations      *
                            ***************************************

                                    ---------------------
                                    Active property flags
                                    ---------------------
   (+) Dipole Moment


------------------------------------------------------------------------------
                       ORCA ELECTRIC PROPERTIES CALCULATION
------------------------------------------------------------------------------

Dipole Moment Calculation                       ... on
Quadrupole Moment Calculation                   ... off
Polarizability Calculation                      ... off
GBWName                                         ... 39_CoCl.gbw
Electron density file                           ... 39_CoCl.scfp
The origin for moment calculation is the CENTER OF MASS  = ( 0.000000,  0.000000  1.398559)

-------------
DIPOLE MOMENT
-------------
                                X             Y             Z
Electronic contribution:      0.00000       0.00000      -3.66502
Nuclear contribution   :      0.00000       0.00000       1.86529
                        -----------------------------------------
Total Dipole Moment    :      0.00000       0.00000      -1.79973
                        -----------------------------------------
Magnitude (a.u.)       :      1.79973
Magnitude (Debye)      :      4.57454



--------------------
Rotational spectrum 
--------------------
 
Rotational constants in cm-1:     0.000000     0.174373     0.174373 
Rotational constants in MHz :     0.000000  5227.567081  5227.567081 

 Dipole components along the rotational axes: 
x,y,z [a.u.] :    -1.799727     0.000000     0.000000 
x,y,z [Debye]:    -4.574543     0.000000     0.000000 

 

Timings for individual modules:

Sum of individual times         ...       11.721 sec (=   0.195 min)
GTO integral calculation        ...        3.782 sec (=   0.063 min)  32.3 %
SCF iterations                  ...        7.939 sec (=   0.132 min)  67.7 %
                             ****ORCA TERMINATED NORMALLY****
TOTAL RUN TIME: 0 days 0 hours 0 minutes 12 seconds 322 msec
