
                                 *****************
                                 * O   R   C   A *
                                 *****************

           --- An Ab Initio, DFT and Semiempirical electronic structure package ---

                  #######################################################
                  #                        -***-                        #
                  #          Department of theory and spectroscopy      #
                  #               Directorship: Frank Neese             #
                  #        Max Planck Institute fuer Kohlenforschung    #
                  #                Kaiser Wilhelm Platz 1               #
                  #                 D-45470 Muelheim/Ruhr               #
                  #                      Germany                        #
                  #                                                     #
                  #                  All rights reserved                #
                  #                        -***-                        #
                  #######################################################


                         Program Version 4.2.0 -  RELEASE  -


 With contributions from (in alphabetic order):
   Daniel Aravena         : Magnetic Suceptibility
   Michael Atanasov       : Ab Initio Ligand Field Theory (pilot matlab implementation)
   Alexander A. Auer      : GIAO ZORA, VPT2
   Ute Becker             : Parallelization
   Giovanni Bistoni       : ED, misc. LED, open-shell LED, HFLED
   Martin Brehm           : Molecular dynamics
   Dmytro Bykov           : SCF Hessian
   Vijay G. Chilkuri      : MRCI spin determinant printing, contributions to CSF-ICE
   Dipayan Datta          : RHF DLPNO-CCSD density
   Achintya Kumar Dutta   : EOM-CC, STEOM-CC
   Dmitry Ganyushin       : Spin-Orbit,Spin-Spin,Magnetic field MRCI
   Miquel Garcia          : C-PCM Hessian, Gaussian charge scheme
   Yang Guo               : DLPNO-NEVPT2, CIM, IAO-localization
   Andreas Hansen         : Spin unrestricted coupled pair/coupled cluster methods
   Benjamin Helmich-Paris : CASSCF linear response (MC-RPA)
   Lee Huntington         : MR-EOM, pCC
   Robert Izsak           : Overlap fitted RIJCOSX, COSX-SCS-MP3, EOM
   Christian Kollmar      : KDIIS, OOCD, Brueckner-CCSD(T), CCSD density
   Simone Kossmann        : Meta GGA functionals, TD-DFT gradient, OOMP2, MP2 Hessian
   Martin Krupicka        : AUTO-CI
   Lucas Lang             : DCDCAS
   Dagmar Lenk            : GEPOL surface, SMD
   Dimitrios Liakos       : Extrapolation schemes; Compound Job, initial MDCI parallelization
   Dimitrios Manganas     : Further ROCIS development; embedding schemes
   Dimitrios Pantazis     : SARC Basis sets
   Taras Petrenko         : DFT Hessian,TD-DFT gradient, ASA, ECA, R-Raman, ABS, FL, XAS/XES, NRVS
   Peter Pinski           : DLPNO-MP2, DLPNO-MP2 Gradient
   Christoph Reimann      : Effective Core Potentials
   Marius Retegan         : Local ZFS, SOC
   Christoph Riplinger    : Optimizer, TS searches, QM/MM, DLPNO-CCSD(T), (RO)-DLPNO pert. Triples
   Tobias Risthaus        : Range-separated hybrids, TD-DFT gradient, RPA, STAB
   Michael Roemelt        : Original ROCIS implementation
   Masaaki Saitow         : Open-shell DLPNO-CCSD energy and density
   Barbara Sandhoefer     : DKH picture change effects
   Avijit Sen             : IP-ROCIS
   Kantharuban Sivalingam : CASSCF convergence, NEVPT2, FIC-MRCI
   Bernardo de Souza      : ESD, SOC TD-DFT
   Georgi Stoychev        : AutoAux, RI-MP2 NMR
   Willem Van den Heuvel  : Paramagnetic NMR
   Boris Wezisla          : Elementary symmetry handling
   Frank Wennmohs         : Technical directorship


 We gratefully acknowledge several colleagues who have allowed us to
 interface, adapt or use parts of their codes:
   Stefan Grimme, W. Hujo, H. Kruse,             : VdW corrections, initial TS optimization,
                  C. Bannwarth                     DFT functionals, gCP, sTDA/sTD-DF
   Ed Valeev, F. Pavosevic, A. Kumar             : LibInt (2-el integral package), F12 methods
   Garnet Chan, S. Sharma, J. Yang, R. Olivares  : DMRG
   Ulf Ekstrom                                   : XCFun DFT Library
   Mihaly Kallay                                 : mrcc  (arbitrary order and MRCC methods)
   Andreas Klamt, Michael Diedenhofen            : otool_cosmo (COSMO solvation model)
   Jiri Pittner, Ondrej Demel                    : Mk-CCSD
   Frank Weinhold                                : gennbo (NPA and NBO analysis)
   Christopher J. Cramer and Donald G. Truhlar   : smd solvation model
   Lars Goerigk                                  : TD-DFT with DH, B97 family of functionals
   V. Asgeirsson, H. Jonsson                     : NEB implementation
   FAccTs GmbH                                   : IRC, NEB, NEB-TS, Multilevel, MM, QM/MM, CI optimization
   S Lehtola, MJT Oliveira, MAL Marques          : LibXC Library


 Your calculation uses the libint2 library for the computation of 2-el integrals
 For citations please refer to: http://libint.valeyev.net

 Your ORCA version has been built with support for libXC version: 4.2.3
 For citations please refer to: https://tddft.org/programs/libxc/

 This ORCA versions uses:
   CBLAS   interface :  Fast vector & matrix operations
   LAPACKE interface :  Fast linear algebra routines
   SCALAPACK package :  Parallel linear algebra routines


Your calculation utilizes the atom-pairwise dispersion correction
with the Becke-Johnson damping scheme (D3BJ)
Cite in your paper:
S.Grimme, S.Ehrlich, L.Goerigk, J Comput Chem, (2011), 32, 1456–1465 
S.Grimme, J.Antony, S.Ehrlich and H.Krieg, J.Chem.Phys., 132, (2010), 154104 
   

----- Orbital basis set information -----
Your calculation utilizes the basis: aug-cc-pVTZ 
    H, B-Ne : Obtained from the ccRepo (grant-hill.group.shef.ac.uk/ccrepo) Feb. 2017
              R. A. Kendall, T. H. Dunning, Jr., R. J. Harrison, J. Chem. Phys. 96, 6796 (1992)
         He : Obtained from the ccRepo (grant-hill.group.shef.ac.uk/ccrepo) Feb. 2017
              D. E. Woon, T. H. Dunning, Jr., J. Chem. Phys. 100, 2975 (1994)
  Li-Be, Na : Obtained from the ccRepo (grant-hill.group.shef.ac.uk/ccrepo) Feb. 2017
              B. P. Prascher, D. E. Woon, K. A. Peterson, T. H. Dunning, Jr., A. K. Wilson, Theor. Chem. Acc. 128, 69 (2011)
         Mg : Obtained from the Peterson Research Group Website (tyr0.chem.wsu.edu/~kipeters) Feb. 2017
              B. P. Prascher, D. E. Woon, K. A. Peterson, T. H. Dunning, Jr., A. K. Wilson, Theor. Chem. Acc. 128, 69 (2011)
      Al-Ar : Obtained from the ccRepo (grant-hill.group.shef.ac.uk/ccrepo) Feb. 2017
              D. E. Woon, T. H. Dunning, Jr., J. Chem. Phys. 98, 1358 (1993)
      Sc-Zn : Obtained from the ccRepo (grant-hill.group.shef.ac.uk/ccrepo) Feb. 2017
              N. B. Balabanov, K. A. Peterson, J. Chem. Phys. 123, 064107 (2005)
              N. B. Balabanov, K. A. Peterson, J. Chem. Phys. 125, 074110 (2006)
      Ga-Kr : Obtained from the ccRepo (grant-hill.group.shef.ac.uk/ccrepo) Feb. 2017
              A. K. Wilson, D. E. Woon, K. A. Peterson, T. H. Dunning, Jr., J. Chem. Phys. 110, 7667 (1999)
     Ag, Au : Obtained from the Peterson Research Group Website (tyr0.chem.wsu.edu/~kipeters) Feb. 2017
              K. A. Peterson, C. Puzzarini, Theor. Chem. Acc. 114, 283 (2005)

----- AuxJ basis set information -----
Your calculation utilizes the auxiliary basis: def2/J
   F. Weigend, Phys. Chem. Chem. Phys. 8, 1057 (2006).

================================================================================
                                        WARNINGS
                       Please study these warnings very carefully!
================================================================================


WARNING: your system is open-shell and RHF/RKS was chosen
  ===> : WILL SWITCH to UHF/UKS


INFO   : the flag for use of LIBINT has been found!

================================================================================
                                       INPUT FILE
================================================================================
NAME = 40_CoBr.in
|  1> #
|  2> # 40_CoBr tpss/aug-cc-pvtz
|  3> #
|  4> ! tpss d3bj aug-cc-pvtz def2/j grid4 nofinalgrid
|  5> 
|  6> *xyz 0 3
|  7>   Co  0.00000000000000      0.00000000000000     -0.10327875603907
|  8>   Br  0.00000000000000      0.00000000000000      2.10327875603907
|  9> *
| 10> 
| 11> %pal
| 12> nprocs 24
| 13> end
| 14> 
| 15> 
| 16>                          ****END OF INPUT****
================================================================================

                       ****************************
                       * Single Point Calculation *
                       ****************************

---------------------------------
CARTESIAN COORDINATES (ANGSTROEM)
---------------------------------
  Co     0.000000    0.000000   -0.103279
  Br     0.000000    0.000000    2.103279

----------------------------
CARTESIAN COORDINATES (A.U.)
----------------------------
  NO LB      ZA    FRAG     MASS         X           Y           Z
   0 Co   27.0000    0    58.930    0.000000    0.000000   -0.195169
   1 Br   35.0000    0    79.900    0.000000    0.000000    3.974621

--------------------------------
INTERNAL COORDINATES (ANGSTROEM)
--------------------------------
 Co     0   0   0     0.000000000000     0.00000000     0.00000000
 Br     1   0   0     2.206557512078     0.00000000     0.00000000

---------------------------
INTERNAL COORDINATES (A.U.)
---------------------------
 Co     0   0   0     0.000000000000     0.00000000     0.00000000
 Br     1   0   0     4.169789396574     0.00000000     0.00000000

---------------------
BASIS SET INFORMATION
---------------------
There are 2 groups of distinct atoms

 Group   1 Type Co  : 116s77p23d3f2g contracted to 8s7p5d3f2g pattern {19191919191911/151515151511/77711/111/11}
 Group   2 Type Br  : 75s36p10d2f contracted to 7s6p4d2f pattern {18181818111/111111111/7111/11}

Atom   0Co   basis set group =>   1
Atom   1Br   basis set group =>   2
---------------------------------
AUXILIARY/J BASIS SET INFORMATION
---------------------------------
There are 2 groups of distinct atoms

 Group   1 Type Co  : 19s5p5d3f3g contracted to 8s5p5d2f3g pattern {121111111/11111/11111/21/111}
 Group   2 Type Br  : 19s5p5d3f1g contracted to 8s4p3d2f1g pattern {121111111/2111/311/21/1}

Atom   0Co   basis set group =>   1
Atom   1Br   basis set group =>   2


           ************************************************************
           *        Program running with 24 parallel MPI-processes    *
           *              working on a common directory               *
           ************************************************************
------------------------------------------------------------------------------
                           ORCA GTO INTEGRAL CALCULATION
                           -- RI-GTO INTEGRALS CHOSEN --
------------------------------------------------------------------------------

                         BASIS SET STATISTICS AND STARTUP INFO

Gaussian basis set:
 # of primitive gaussian shells          ...  344
 # of primitive gaussian functions       ...  748
 # of contracted shells                  ...   44
 # of contracted basis functions         ...  152
 Highest angular momentum                ...    4
 Maximum contraction depth               ...   19
Auxiliary gaussian basis set:
 # of primitive gaussian shells          ...   68
 # of primitive gaussian functions       ...  196
 # of contracted shells                  ...   41
 # of contracted aux-basis functions     ...  147
 Highest angular momentum                ...    4
 Maximum contraction depth               ...   12
Ratio of auxiliary to basis functions    ...  0.97
Integral package used                  ... LIBINT
 One Electron integrals                  ... done
 Ordering auxiliary basis shells         ... done
 Integral threshhold             Thresh  ...  1.000e-10
 Primitive cut-off               TCut    ...  1.000e-11
 Pre-screening matrix                    ... done
 Shell pair data                         ... 
 Ordering of the shell pairs             ... done (   0.000 sec) 990 of 990 pairs
 Determination of significant pairs      ... done (   0.000 sec)
 Creation of shell pair data             ... done (   0.002 sec)
 Storage of shell pair data              ... done (   0.188 sec)
 Shell pair data done in (   0.191 sec)
 Computing two index integrals           ... done
 Cholesky decomposition of the V-matrix  ... done


Timings:
 Total evaluation time                   ...   4.646 sec (  0.077 min)
 One electron matrix time                ...   0.061 sec (  0.001 min) =  1.3%
 Schwartz matrix evaluation time         ...   4.367 sec (  0.073 min) = 94.0%
 Two index repulsion integral time       ...   0.001 sec (  0.000 min) =  0.0%
 Cholesky decomposition of V             ...   0.001 sec (  0.000 min) =  0.0%
 Three index repulsion integral time     ...   0.000 sec (  0.000 min) =  0.0%



           ************************************************************
           *        Program running with 24 parallel MPI-processes    *
           *              working on a common directory               *
           ************************************************************
-------------------------------------------------------------------------------
                                 ORCA SCF
-------------------------------------------------------------------------------

------------
SCF SETTINGS
------------
Hamiltonian:
 Density Functional     Method          .... DFT(GTOs)
 Exchange Functional    Exchange        .... TPSS
 Correlation Functional Correlation     .... TPSS
 LDA part of GGA corr.  LDAOpt          .... PW91-LDA
 Gradients option       PostSCFGGA      .... off
   Density functional embedding theory  .... OFF
   NL short-range parameter             ....  5.000000
 RI-approximation to the Coulomb term is turned on
   Number of auxiliary basis functions  .... 147


General Settings:
 Integral files         IntName         .... 40_CoBr
 Hartree-Fock type      HFTyp           .... UHF
 Total Charge           Charge          ....    0
 Multiplicity           Mult            ....    3
 Number of Electrons    NEL             ....   62
 Basis Dimension        Dim             ....  152
 Nuclear Repulsion      ENuc            ....    226.6301508600 Eh

Convergence Acceleration:
 DIIS                   CNVDIIS         .... on
   Start iteration      DIISMaxIt       ....    12
   Startup error        DIISStart       ....  0.200000
   # of expansion vecs  DIISMaxEq       ....     5
   Bias factor          DIISBfac        ....   1.050
   Max. coefficient     DIISMaxC        ....  10.000
 Newton-Raphson         CNVNR           .... off
 SOSCF                  CNVSOSCF        .... off
 Level Shifting         CNVShift        .... on
   Level shift para.    LevelShift      ....    0.2500
   Turn off err/grad.   ShiftErr        ....    0.0010
 Zerner damping         CNVZerner       .... off
 Static damping         CNVDamp         .... on
   Fraction old density DampFac         ....    0.7000
   Max. Damping (<1)    DampMax         ....    0.9800
   Min. Damping (>=0)   DampMin         ....    0.0000
   Turn off err/grad.   DampErr         ....    0.1000
 Fernandez-Rico         CNVRico         .... off

SCF Procedure:
 Maximum # iterations   MaxIter         ....   125
 SCF integral mode      SCFMode         .... Direct
   Integral package                     .... LIBINT
 Reset frequency        DirectResetFreq ....    20
 Integral Threshold     Thresh          ....  1.000e-10 Eh
 Primitive CutOff       TCut            ....  1.000e-11 Eh

Convergence Tolerance:
 Convergence Check Mode ConvCheckMode   .... Total+1el-Energy
 Convergence forced     ConvForced      .... 0
 Energy Change          TolE            ....  1.000e-06 Eh
 1-El. energy change                    ....  1.000e-03 Eh
 DIIS Error             TolErr          ....  1.000e-06


Diagonalization of the overlap matrix:
Smallest eigenvalue                        ... 9.334e-05
Time for diagonalization                   ...    0.006 sec
Threshold for overlap eigenvalues          ... 1.000e-08
Number of eigenvalues below threshold      ... 0
Time for construction of square roots      ...    0.003 sec
Total time needed                          ...    0.009 sec

-------------------
DFT GRID GENERATION
-------------------

General Integration Accuracy     IntAcc      ...  4.670
Radial Grid Type                 RadialGrid  ... Gauss-Chebyshev
Angular Grid (max. acc.)         AngularGrid ... Lebedev-302
Angular grid pruning method      GridPruning ... 3 (G Style)
Weight generation scheme         WeightScheme... Becke
Basis function cutoff            BFCut       ...    1.0000e-10
Integration weight cutoff        WCut        ...    1.0000e-14
Grids for H and He will be reduced by one unit

# of grid points (after initial pruning)     ...  19256 (   0.0 sec)
# of grid points (after weights+screening)   ...  19228 (   0.0 sec)
nearest neighbour list constructed           ...    0.0 sec
Grid point re-assignment to atoms done       ...    0.0 sec
Grid point division into batches done        ...    0.2 sec
Reduced shell lists constructed in    0.2 sec

Total number of grid points                  ...    19228
Total number of batches                      ...      302
Average number of points per batch           ...       63
Average number of grid points per atom       ...     9614
Average number of shells per batch           ...    15.93 (36.20%)
Average number of basis functions per batch  ...    38.07 (25.05%)
Average number of large shells per batch     ...     8.64 (54.26%)
Average number of large basis fcns per batch ...    22.36 (58.72%)
Maximum spatial batch extension              ...  24.49, 24.19, 17.76 au
Average spatial batch extension              ...   0.84,  0.83,  0.67 au

Time for grid setup =    0.201 sec

------------------------------
INITIAL GUESS: MODEL POTENTIAL
------------------------------
Loading Hartree-Fock densities                     ... done
Calculating cut-offs                               ... done
Setting up the integral package                    ... done
Initializing the effective Hamiltonian             ... done
Starting the Coulomb interaction                   ... done (   0.0 sec)
Reading the grid                                   ... done
Mapping shells                                     ... done
Starting the XC term evaluation                    ... done (   0.0 sec)
  promolecular density results
     # of electrons  =     62.000026053
     EX              =   -147.031328486
     EC              =     -2.926898212
     EX+EC           =   -149.958226698
Transforming the Hamiltonian                       ... done (   0.0 sec)
Diagonalizing the Hamiltonian                      ... done (   0.0 sec)
Back transforming the eigenvectors                 ... done (   0.0 sec)
Now organizing SCF variables                       ... done
                      ------------------
                      INITIAL GUESS DONE (   0.3 sec)
                      ------------------
--------------
SCF ITERATIONS
--------------
ITER       Energy         Delta-E        Max-DP      RMS-DP      [F,P]     Damp
               ***  Starting incremental Fock matrix formation  ***
  0  -3956.7522498881   0.000000000000 0.17667552  0.00219554  0.4555357 0.7000
  1  -3956.7545116824  -0.002261794259 0.04892006  0.00093712  0.2560011 0.7000
                               ***Turning on DIIS***
  2  -3956.8329666147  -0.078454932335 0.10413608  0.00140124  0.0679312 0.0000
  3  -3956.8498920117  -0.016925396988 0.01767945  0.00023395  0.3695463 0.7000
  4  -3956.8811847301  -0.031292718383 0.02349382  0.00025951  0.3132645 0.7000
  5  -3956.9105618603  -0.029377130242 0.02369052  0.00024670  0.2561924 0.7000
  6  -3956.9334696673  -0.022907807003 0.02133445  0.00021930  0.2038423 0.7000
  7  -3956.9502058457  -0.016736178382 0.01963503  0.00023493  0.1555457 0.7000
  8  -3956.9642379253  -0.014032079607 0.05460020  0.00063384  0.0893969 0.0000
  9  -3956.9769281121  -0.012690186790 0.00466353  0.00009386  0.0539858 0.0000
 10  -3956.9787071531  -0.001779041021 0.00474543  0.00007690  0.0221015 0.0000
 11  -3956.9792639525  -0.000556799408 0.00349730  0.00004266  0.0088856 0.0000
 12  -3956.9793830901  -0.000119137558 0.00224587  0.00002550  0.0024311 0.0000
 13  -3956.9794128381  -0.000029748005 0.00134328  0.00001526  0.0010487 0.0000
 14  -3956.9794237699  -0.000010931752 0.00440890  0.00003795  0.0006851 0.0000
 15  -3956.9794386654  -0.000014895534 0.00054715  0.00000699  0.0003123 0.0000
 16  -3956.9794385789   0.000000086447 0.00065531  0.00000787  0.0001280 0.0000
 17  -3956.9794392447  -0.000000665751 0.00047339  0.00000513  0.0000307 0.0000
 18  -3956.9794389591   0.000000285630 0.00006849  0.00000079  0.0001330 0.0000
                 **** Energy Check signals convergence ****

               *****************************************************
               *                     SUCCESS                       *
               *           SCF CONVERGED AFTER  19 CYCLES          *
               *****************************************************


----------------
TOTAL SCF ENERGY
----------------

Total Energy       :        -3956.97943847 Eh         -107674.88461 eV

Components:
Nuclear Repulsion  :          226.63015086 Eh            6166.91993 eV
Electronic Energy  :        -4183.60958933 Eh         -113841.80453 eV
One Electron Energy:        -5952.52865708 Eh         -161976.53949 eV
Two Electron Energy:         1768.91906774 Eh           48134.73496 eV

Virial components:
Potential Energy   :        -7907.93938093 Eh         -215185.97040 eV
Kinetic Energy     :         3950.95994246 Eh          107511.08579 eV
Virial Ratio       :            2.00152355


DFT components:
N(Alpha)           :       32.000015304924 electrons
N(Beta)            :       30.000013943615 electrons
N(Total)           :       62.000029248539 electrons
E(X)               :     -147.714292172658 Eh       
E(C)               :       -2.940198683024 Eh       
E(XC)              :     -150.654490855682 Eh       
DFET-embed. en.    :        0.000000000000 Eh       

---------------
SCF CONVERGENCE
---------------

  Last Energy change         ...    4.8557e-07  Tolerance :   1.0000e-06
  Last MAX-Density change    ...    2.6662e-04  Tolerance :   1.0000e-05
  Last RMS-Density change    ...    3.0415e-06  Tolerance :   1.0000e-06
  Last DIIS Error            ...    1.1122e-05  Tolerance :   1.0000e-06

             **** THE GBW FILE WAS UPDATED (40_CoBr.gbw) ****
             **** DENSITY FILE WAS UPDATED (40_CoBr.scfp) ****
             **** ENERGY FILE WAS UPDATED (40_CoBr.en.tmp) ****
----------------------
UHF SPIN CONTAMINATION
----------------------

Warning: in a DFT calculation there is little theoretical justification to 
         calculate <S**2> as in Hartree-Fock theory. We will do it anyways
         but you should keep in mind that the values have only limited relevance

Expectation value of <S**2>     :     2.007849
Ideal value S*(S+1) for S=1.0   :     2.000000
Deviation                       :     0.007849

             **** THE GBW FILE WAS UPDATED (40_CoBr.gbw) ****
             **** DENSITY FILE WAS UPDATED (40_CoBr.scfp) ****
----------------
ORBITAL ENERGIES
----------------
                 SPIN UP ORBITALS
  NO   OCC          E(Eh)            E(eV) 
   0   1.0000    -481.709968    -13107.9946 
   1   1.0000    -276.632922     -7527.5645 
   2   1.0000     -61.927199     -1685.1248 
   3   1.0000     -55.760509     -1517.3206 
   4   1.0000     -55.758693     -1517.2712 
   5   1.0000     -55.758693     -1517.2712 
   6   1.0000     -32.410145      -881.9249 
   7   1.0000     -28.085650      -764.2494 
   8   1.0000     -28.055431      -763.4271 
   9   1.0000     -28.055430      -763.4271 
  10   1.0000      -8.453038      -230.0189 
  11   1.0000      -6.292011      -171.2143 
  12   1.0000      -6.288031      -171.1060 
  13   1.0000      -6.288031      -171.1060 
  14   1.0000      -3.598195       -97.9119 
  15   1.0000      -2.460638       -66.9574 
  16   1.0000      -2.459374       -66.9230 
  17   1.0000      -2.459374       -66.9230 
  18   1.0000      -2.456185       -66.8362 
  19   1.0000      -2.456141       -66.8350 
  20   1.0000      -2.347106       -63.8680 
  21   1.0000      -2.278706       -62.0068 
  22   1.0000      -2.278706       -62.0067 
  23   1.0000      -0.682802       -18.5800 
  24   1.0000      -0.311330        -8.4717 
  25   1.0000      -0.278524        -7.5790 
  26   1.0000      -0.278524        -7.5790 
  27   1.0000      -0.222757        -6.0615 
  28   1.0000      -0.222757        -6.0615 
  29   1.0000      -0.203719        -5.5435 
  30   1.0000      -0.184912        -5.0317 
  31   1.0000      -0.184910        -5.0317 
  32   0.0000      -0.132520        -3.6061 
  33   0.0000      -0.020778        -0.5654 
  34   0.0000      -0.020778        -0.5654 
  35   0.0000       0.005279         0.1437 
  36   0.0000       0.006855         0.1865 
  37   0.0000       0.034271         0.9325 
  38   0.0000       0.034271         0.9326 
  39   0.0000       0.052396         1.4258 
  40   0.0000       0.064908         1.7662 
  41   0.0000       0.064909         1.7663 
  42   0.0000       0.071946         1.9577 
  43   0.0000       0.075654         2.0587 
  44   0.0000       0.075655         2.0587 
  45   0.0000       0.096415         2.6236 
  46   0.0000       0.096415         2.6236 
  47   0.0000       0.105755         2.8777 
  48   0.0000       0.118817         3.2332 
  49   0.0000       0.182584         4.9684 
  50   0.0000       0.188184         5.1207 
  51   0.0000       0.188184         5.1207 
  52   0.0000       0.196716         5.3529 
  53   0.0000       0.196717         5.3529 
  54   0.0000       0.212512         5.7827 
  55   0.0000       0.260685         7.0936 
  56   0.0000       0.260685         7.0936 
  57   0.0000       0.309883         8.4324 
  58   0.0000       0.309884         8.4324 
  59   0.0000       0.319688         8.6991 
  60   0.0000       0.356718         9.7068 
  61   0.0000       0.356718         9.7068 
  62   0.0000       0.438364        11.9285 
  63   0.0000       0.440769        11.9939 
  64   0.0000       0.440769        11.9939 
  65   0.0000       0.505859        13.7651 
  66   0.0000       0.570893        15.5348 
  67   0.0000       0.610900        16.6234 
  68   0.0000       0.610907        16.6236 
  69   0.0000       0.630981        17.1699 
  70   0.0000       0.639578        17.4038 
  71   0.0000       0.639578        17.4038 
  72   0.0000       0.759787        20.6749 
  73   0.0000       0.759793        20.6750 
  74   0.0000       0.763713        20.7817 
  75   0.0000       0.763713        20.7817 
  76   0.0000       0.805022        21.9058 
  77   0.0000       0.805022        21.9058 
  78   0.0000       0.833679        22.6856 
  79   0.0000       0.925340        25.1798 
  80   0.0000       0.925340        25.1798 
  81   0.0000       1.005864        27.3710 
  82   0.0000       1.005864        27.3710 
  83   0.0000       1.030404        28.0387 
  84   0.0000       1.148567        31.2541 
  85   0.0000       1.148571        31.2542 
  86   0.0000       1.186656        32.2905 
  87   0.0000       1.207258        32.8512 
  88   0.0000       1.207258        32.8512 
  89   0.0000       1.244087        33.8533 
  90   0.0000       1.244088        33.8533 
  91   0.0000       1.308853        35.6157 
  92   0.0000       1.480536        40.2874 
  93   0.0000       1.480536        40.2874 
  94   0.0000       1.706734        46.4426 
  95   0.0000       1.855660        50.4951 
  96   0.0000       1.855660        50.4951 
  97   0.0000       1.970935        53.6319 
  98   0.0000       1.971060        53.6353 
  99   0.0000       2.006700        54.6051 
 100   0.0000       2.010531        54.7093 
 101   0.0000       2.010531        54.7093 
 102   0.0000       2.042284        55.5734 
 103   0.0000       2.042304        55.5739 
 104   0.0000       2.081163        56.6313 
 105   0.0000       2.081163        56.6313 
 106   0.0000       2.125207        57.8298 
 107   0.0000       2.125207        57.8298 
 108   0.0000       2.183037        59.4035 
 109   0.0000       2.563395        69.7535 
 110   0.0000       3.133674        85.2716 
 111   0.0000       3.133674        85.2716 
 112   0.0000       3.142304        85.5064 
 113   0.0000       3.142310        85.5066 
 114   0.0000       3.165221        86.1301 
 115   0.0000       3.239006        88.1378 
 116   0.0000       3.239006        88.1378 
 117   0.0000       3.301948        89.8506 
 118   0.0000       3.341578        90.9290 
 119   0.0000       3.341578        90.9290 
 120   0.0000       3.739049       101.7447 
 121   0.0000       3.910806       106.4184 
 122   0.0000       3.978447       108.2591 
 123   0.0000       3.978447       108.2591 
 124   0.0000       3.989454       108.5585 
 125   0.0000       3.989455       108.5586 
 126   0.0000       4.008751       109.0837 
 127   0.0000       4.008955       109.0892 
 128   0.0000       4.096423       111.4693 
 129   0.0000       4.096423       111.4693 
 130   0.0000       4.491161       122.2107 
 131   0.0000       5.062622       137.7610 
 132   0.0000       5.062625       137.7610 
 133   0.0000       5.184999       141.0910 
 134   0.0000       5.184999       141.0910 
 135   0.0000       6.029501       164.0711 
 136   0.0000      10.309018       280.5226 
 137   0.0000      10.309286       280.5299 
 138   0.0000      10.356364       281.8110 
 139   0.0000      10.356364       281.8110 
 140   0.0000      10.375867       282.3417 
 141   0.0000      10.375867       282.3417 
 142   0.0000      10.417384       283.4714 
 143   0.0000      11.446390       311.4721 
 144   0.0000      11.446802       311.4833 
 145   0.0000      11.447983       311.5155 
 146   0.0000      11.447983       311.5155 
 147   0.0000      11.503390       313.0232 
 148   0.0000      11.503390       313.0232 
 149   0.0000      11.507033       313.1223 
 150   0.0000      11.507236       313.1278 
 151   0.0000      11.575466       314.9844 

                 SPIN DOWN ORBITALS
  NO   OCC          E(Eh)            E(eV) 
   0   1.0000    -481.709748    -13107.9886 
   1   1.0000    -276.632502     -7527.5531 
   2   1.0000     -61.927120     -1685.1226 
   3   1.0000     -55.760495     -1517.3202 
   4   1.0000     -55.758418     -1517.2637 
   5   1.0000     -55.758418     -1517.2637 
   6   1.0000     -32.378118      -881.0534 
   7   1.0000     -28.051199      -763.3119 
   8   1.0000     -28.033610      -762.8333 
   9   1.0000     -28.033610      -762.8333 
  10   1.0000      -8.452739      -230.0107 
  11   1.0000      -6.291992      -171.2138 
  12   1.0000      -6.287530      -171.0924 
  13   1.0000      -6.287530      -171.0924 
  14   1.0000      -3.516565       -95.6906 
  15   1.0000      -2.460462       -66.9526 
  16   1.0000      -2.459079       -66.9149 
  17   1.0000      -2.459079       -66.9149 
  18   1.0000      -2.455453       -66.8163 
  19   1.0000      -2.455409       -66.8151 
  20   1.0000      -2.239196       -60.9316 
  21   1.0000      -2.210754       -60.1577 
  22   1.0000      -2.210754       -60.1577 
  23   1.0000      -0.679740       -18.4967 
  24   1.0000      -0.305029        -8.3002 
  25   1.0000      -0.253487        -6.8977 
  26   1.0000      -0.253487        -6.8977 
  27   1.0000      -0.189287        -5.1508 
  28   1.0000      -0.143381        -3.9016 
  29   1.0000      -0.143379        -3.9015 
  30   0.0000      -0.118224        -3.2170 
  31   0.0000      -0.118224        -3.2170 
  32   0.0000      -0.114417        -3.1134 
  33   0.0000      -0.017669        -0.4808 
  34   0.0000      -0.017668        -0.4808 
  35   0.0000       0.006882         0.1873 
  36   0.0000       0.008890         0.2419 
  37   0.0000       0.035431         0.9641 
  38   0.0000       0.035431         0.9641 
  39   0.0000       0.053553         1.4572 
  40   0.0000       0.064863         1.7650 
  41   0.0000       0.064864         1.7650 
  42   0.0000       0.075151         2.0450 
  43   0.0000       0.076569         2.0835 
  44   0.0000       0.076569         2.0836 
  45   0.0000       0.099606         2.7104 
  46   0.0000       0.099606         2.7104 
  47   0.0000       0.110212         2.9990 
  48   0.0000       0.120531         3.2798 
  49   0.0000       0.185086         5.0365 
  50   0.0000       0.192123         5.2279 
  51   0.0000       0.192123         5.2279 
  52   0.0000       0.198870         5.4115 
  53   0.0000       0.198872         5.4116 
  54   0.0000       0.221605         6.0302 
  55   0.0000       0.269863         7.3433 
  56   0.0000       0.269863         7.3434 
  57   0.0000       0.312946         8.5157 
  58   0.0000       0.312947         8.5157 
  59   0.0000       0.321599         8.7511 
  60   0.0000       0.364524         9.9192 
  61   0.0000       0.364524         9.9192 
  62   0.0000       0.444067        12.0837 
  63   0.0000       0.444067        12.0837 
  64   0.0000       0.444459        12.0943 
  65   0.0000       0.517668        14.0865 
  66   0.0000       0.573738        15.6122 
  67   0.0000       0.614511        16.7217 
  68   0.0000       0.614519        16.7219 
  69   0.0000       0.641733        17.4625 
  70   0.0000       0.641733        17.4625 
  71   0.0000       0.644376        17.5344 
  72   0.0000       0.765767        20.8376 
  73   0.0000       0.765772        20.8377 
  74   0.0000       0.767009        20.8714 
  75   0.0000       0.767009        20.8714 
  76   0.0000       0.823408        22.4061 
  77   0.0000       0.823408        22.4061 
  78   0.0000       0.847304        23.0563 
  79   0.0000       0.935228        25.4488 
  80   0.0000       0.935228        25.4488 
  81   0.0000       1.006596        27.3909 
  82   0.0000       1.006596        27.3909 
  83   0.0000       1.041328        28.3360 
  84   0.0000       1.174042        31.9473 
  85   0.0000       1.174046        31.9474 
  86   0.0000       1.195311        32.5261 
  87   0.0000       1.250066        34.0160 
  88   0.0000       1.250066        34.0160 
  89   0.0000       1.262704        34.3599 
  90   0.0000       1.262709        34.3601 
  91   0.0000       1.322023        35.9741 
  92   0.0000       1.512839        41.1664 
  93   0.0000       1.512839        41.1664 
  94   0.0000       1.717003        46.7220 
  95   0.0000       1.860200        50.6186 
  96   0.0000       1.860200        50.6186 
  97   0.0000       1.974895        53.7396 
  98   0.0000       1.975024        53.7431 
  99   0.0000       2.010157        54.6991 
 100   0.0000       2.015686        54.8496 
 101   0.0000       2.015686        54.8496 
 102   0.0000       2.045723        55.6670 
 103   0.0000       2.045745        55.6676 
 104   0.0000       2.084091        56.7110 
 105   0.0000       2.084091        56.7110 
 106   0.0000       2.131694        58.0063 
 107   0.0000       2.131694        58.0063 
 108   0.0000       2.187938        59.5368 
 109   0.0000       2.590793        70.4991 
 110   0.0000       3.154852        85.8479 
 111   0.0000       3.154852        85.8479 
 112   0.0000       3.222333        87.6841 
 113   0.0000       3.222337        87.6842 
 114   0.0000       3.224009        87.7297 
 115   0.0000       3.298055        89.7446 
 116   0.0000       3.298055        89.7446 
 117   0.0000       3.330411        90.6251 
 118   0.0000       3.383236        92.0625 
 119   0.0000       3.383236        92.0625 
 120   0.0000       3.785978       103.0217 
 121   0.0000       3.930218       106.9467 
 122   0.0000       4.019455       109.3749 
 123   0.0000       4.019683       109.3811 
 124   0.0000       4.037833       109.8750 
 125   0.0000       4.037833       109.8750 
 126   0.0000       4.053378       110.2980 
 127   0.0000       4.053381       110.2981 
 128   0.0000       4.138654       112.6185 
 129   0.0000       4.138654       112.6185 
 130   0.0000       4.510601       122.7397 
 131   0.0000       5.105395       138.9249 
 132   0.0000       5.105407       138.9252 
 133   0.0000       5.281207       143.7089 
 134   0.0000       5.281207       143.7090 
 135   0.0000       6.080695       165.4641 
 136   0.0000      10.414085       283.3817 
 137   0.0000      10.414085       283.3817 
 138   0.0000      10.455317       284.5036 
 139   0.0000      10.455534       284.5095 
 140   0.0000      10.489058       285.4218 
 141   0.0000      10.489058       285.4218 
 142   0.0000      10.493380       285.5394 
 143   0.0000      11.543073       314.1030 
 144   0.0000      11.543096       314.1036 
 145   0.0000      11.543096       314.1036 
 146   0.0000      11.543437       314.1129 
 147   0.0000      11.555190       314.4327 
 148   0.0000      11.555381       314.4379 
 149   0.0000      11.584515       315.2307 
 150   0.0000      11.584515       315.2307 
 151   0.0000      11.649738       317.0055 

                    ********************************
                    * MULLIKEN POPULATION ANALYSIS *
                    ********************************

--------------------------------------------
MULLIKEN ATOMIC CHARGES AND SPIN POPULATIONS
--------------------------------------------
   0 Co:    0.405487    1.918672
   1 Br:   -0.405487    0.081328
Sum of atomic charges         :   -0.0000000
Sum of atomic spin populations:    2.0000000

-----------------------------------------------------
MULLIKEN REDUCED ORBITAL CHARGES AND SPIN POPULATIONS
-----------------------------------------------------
CHARGE
  0 Cos       :     6.468835  s :     6.468835
      pz      :     4.051572  p :    12.139771
      px      :     4.044100
      py      :     4.044100
      dz2     :     1.851293  d :     7.974351
      dxz     :     1.064544
      dyz     :     1.064544
      dx2y2   :     1.996985
      dxy     :     1.996984
      f0      :     0.003554  f :     0.010974
      f+1     :     0.003662
      f-1     :     0.003662
      f+2     :     0.000048
      f-2     :     0.000048
      f+3     :     0.000000
      f-3     :     0.000000
      g0      :     0.000284  g :     0.000581
      g+1     :     0.000107
      g-1     :     0.000107
      g+2     :     0.000041
      g-2     :     0.000041
      g+3     :     0.000000
      g-3     :     0.000000
      g+4     :     0.000000
      g-4     :     0.000000
  1 Brs       :     8.053646  s :     8.053646
      pz      :     5.565242  p :    17.321981
      px      :     5.878370
      py      :     5.878370
      dz2     :     2.005173  d :    10.024153
      dxz     :     2.007572
      dyz     :     2.007572
      dx2y2   :     2.001918
      dxy     :     2.001918
      f0      :     0.000400  f :     0.005707
      f+1     :     0.001645
      f-1     :     0.001645
      f+2     :     0.001008
      f-2     :     0.001009
      f+3     :     0.000000
      f-3     :     0.000000

SPIN
  0 Cos       :     0.020060  s :     0.020060
      pz      :     0.007376  p :     0.017180
      px      :     0.004902
      py      :     0.004902
      dz2     :     0.029496  d :     1.879795
      dxz     :     0.924825
      dyz     :     0.924825
      dx2y2   :     0.000324
      dxy     :     0.000324
      f0      :     0.000421  f :     0.001640
      f+1     :     0.000589
      f-1     :     0.000589
      f+2     :     0.000020
      f-2     :     0.000020
      f+3     :     0.000000
      f-3     :     0.000000
      g0      :    -0.000111  g :    -0.000002
      g+1     :     0.000022
      g-1     :     0.000022
      g+2     :     0.000033
      g-2     :     0.000033
      g+3     :     0.000000
      g-3     :     0.000000
      g+4     :     0.000000
      g-4     :     0.000000
  1 Brs       :    -0.013185  s :    -0.013185
      pz      :    -0.042949  p :     0.090973
      px      :     0.066961
      py      :     0.066961
      dz2     :    -0.001016  d :     0.002770
      dxz     :     0.002280
      dyz     :     0.002280
      dx2y2   :    -0.000388
      dxy     :    -0.000388
      f0      :    -0.000091  f :     0.000770
      f+1     :     0.000421
      f-1     :     0.000421
      f+2     :     0.000010
      f-2     :     0.000010
      f+3     :     0.000000
      f-3     :     0.000000


                     *******************************
                     * LOEWDIN POPULATION ANALYSIS *
                     *******************************

-------------------------------------------
LOEWDIN ATOMIC CHARGES AND SPIN POPULATIONS
-------------------------------------------
   0 Co:   -0.102572    1.860440
   1 Br:    0.102572    0.139560

----------------------------------------------------
LOEWDIN REDUCED ORBITAL CHARGES AND SPIN POPULATIONS
----------------------------------------------------
CHARGE
  0 Cos       :     6.436095  s :     6.436095
      pz      :     4.214606  p :    12.375353
      px      :     4.080373
      py      :     4.080373
      dz2     :     1.966721  d :     8.207175
      dxz     :     1.131400
      dyz     :     1.131400
      dx2y2   :     1.988827
      dxy     :     1.988827
      f0      :     0.035714  f :     0.082284
      f+1     :     0.023139
      f-1     :     0.023139
      f+2     :     0.000146
      f-2     :     0.000146
      f+3     :     0.000000
      f-3     :     0.000000
      g0      :     0.000840  g :     0.001665
      g+1     :     0.000373
      g-1     :     0.000373
      g+2     :     0.000040
      g-2     :     0.000040
      g+3     :     0.000000
      g-3     :     0.000000
      g+4     :     0.000000
      g-4     :     0.000000
  1 Brs       :     7.615194  s :     7.615194
      pz      :     5.580047  p :    17.022637
      px      :     5.721295
      py      :     5.721295
      dz2     :     2.099712  d :    10.158435
      dxz     :     2.023861
      dyz     :     2.023861
      dx2y2   :     2.005500
      dxy     :     2.005500
      f0      :     0.051072  f :     0.101162
      f+1     :     0.019558
      f-1     :     0.019558
      f+2     :     0.005487
      f-2     :     0.005487
      f+3     :     0.000000
      f-3     :     0.000000

SPIN
  0 Cos       :    -0.003570  s :    -0.003570
      pz      :    -0.001293  p :     0.028508
      px      :     0.014901
      py      :     0.014900
      dz2     :     0.025601  d :     1.830789
      dxz     :     0.901277
      dyz     :     0.901277
      dx2y2   :     0.001317
      dxy     :     0.001317
      f0      :    -0.000218  f :     0.004756
      f+1     :     0.002442
      f-1     :     0.002442
      f+2     :     0.000045
      f-2     :     0.000045
      f+3     :     0.000000
      f-3     :     0.000000
      g0      :    -0.000132  g :    -0.000043
      g+1     :     0.000023
      g-1     :     0.000023
      g+2     :     0.000022
      g-2     :     0.000022
      g+3     :     0.000000
      g-3     :     0.000000
      g+4     :     0.000000
      g-4     :     0.000000
  1 Brs       :    -0.001533  s :    -0.001533
      pz      :    -0.018946  p :     0.093901
      px      :     0.056423
      py      :     0.056423
      dz2     :     0.000274  d :     0.025410
      dxz     :     0.013539
      dyz     :     0.013539
      dx2y2   :    -0.000971
      dxy     :    -0.000971
      f0      :    -0.000183  f :     0.021782
      f+1     :     0.011395
      f-1     :     0.011395
      f+2     :    -0.000413
      f-2     :    -0.000413
      f+3     :     0.000000
      f-3     :     0.000000


                      *****************************
                      * MAYER POPULATION ANALYSIS *
                      *****************************

  NA   - Mulliken gross atomic population
  ZA   - Total nuclear charge
  QA   - Mulliken gross atomic charge
  VA   - Mayer's total valence
  BVA  - Mayer's bonded valence
  FA   - Mayer's free valence

  ATOM       NA         ZA         QA         VA         BVA        FA
  0 Co    26.5945    27.0000     0.4055     3.0827     1.3142     1.7685
  1 Br    35.4055    35.0000    -0.4055     1.3284     1.3142     0.0143

  Mayer bond orders larger than 0.100000
B(  0-Co,  1-Br) :   1.3142 

-------
TIMINGS
-------

Total SCF time: 0 days 0 hours 0 min 4 sec 

Total time                  ....       4.598 sec
Sum of individual times     ....       4.415 sec  ( 96.0%)

Fock matrix formation       ....       3.906 sec  ( 85.0%)
  Split-RI-J                ....       2.889 sec  ( 74.0% of F)
  XC integration            ....       0.908 sec  ( 23.3% of F)
    Basis function eval.    ....       0.163 sec  ( 18.0% of XC)
    Density eval.           ....       0.170 sec  ( 18.7% of XC)
    XC-Functional eval.     ....       0.037 sec  (  4.1% of XC)
    XC-Potential eval.      ....       0.377 sec  ( 41.5% of XC)
Diagonalization             ....       0.107 sec  (  2.3%)
Density matrix formation    ....       0.013 sec  (  0.3%)
Population analysis         ....       0.008 sec  (  0.2%)
Initial guess               ....       0.138 sec  (  3.0%)
Orbital Transformation      ....       0.000 sec  (  0.0%)
Orbital Orthonormalization  ....       0.000 sec  (  0.0%)
DIIS solution               ....       0.042 sec  (  0.9%)
Grid generation             ....       0.201 sec  (  4.4%)


-------------------------------------------------------------------------------
                          DFT DISPERSION CORRECTION                            
                                                                               
                              DFTD3 V3.1  Rev 1                                
                          USING Becke-Johnson damping                          
-------------------------------------------------------------------------------
The TPSS functional is recognized
Active option DFTDOPT                   ...         4   

molecular C6(AA) [au] = 767.637364 


            DFT-D V3
 parameters
 s6 scaling factor         :     1.0000 
 a1 scaling factor         :     0.4535 
 s8 scaling factor         :     1.9435 
 a2 scaling factor         :     4.4752 
 ad hoc parameters k1-k3   :    16.0000     1.3333    -4.0000 

 Edisp/kcal,au: -1.027861613662  -0.001638001570 
 E6   /kcal   :  -0.333578525 
 E8   /kcal   :  -0.694283089 
 % E8         :  67.546358362 

-------------------------   ----------------
Dispersion correction           -0.001638002
-------------------------   ----------------


-------------------------   --------------------
FINAL SINGLE POINT ENERGY     -3956.981076475070
-------------------------   --------------------


                            ***************************************
                            *     ORCA property calculations      *
                            ***************************************

                                    ---------------------
                                    Active property flags
                                    ---------------------
   (+) Dipole Moment


------------------------------------------------------------------------------
                       ORCA ELECTRIC PROPERTIES CALCULATION
------------------------------------------------------------------------------

Dipole Moment Calculation                       ... on
Quadrupole Moment Calculation                   ... off
Polarizability Calculation                      ... off
GBWName                                         ... 40_CoBr.gbw
Electron density file                           ... 40_CoBr.scfp
The origin for moment calculation is the CENTER OF MASS  = ( 0.000000,  0.000000  2.204645)

-------------
DIPOLE MOMENT
-------------
                                X             Y             Z
Electronic contribution:      0.00000       0.00000       1.10174
Nuclear contribution   :      0.00000       0.00000      -2.84584
                        -----------------------------------------
Total Dipole Moment    :      0.00000       0.00000      -1.74410
                        -----------------------------------------
Magnitude (a.u.)       :      1.74410
Magnitude (Debye)      :      4.43315



--------------------
Rotational spectrum 
--------------------
 
Rotational constants in cm-1:     0.000000     0.102086     0.102086 
Rotational constants in MHz :     0.000000  3060.463500  3060.463500 

 Dipole components along the rotational axes: 
x,y,z [a.u.] :    -1.744102     0.000000     0.000000 
x,y,z [Debye]:    -4.433154     0.000000     0.000000 

 

Timings for individual modules:

Sum of individual times         ...       10.081 sec (=   0.168 min)
GTO integral calculation        ...        5.139 sec (=   0.086 min)  51.0 %
SCF iterations                  ...        4.942 sec (=   0.082 min)  49.0 %
                             ****ORCA TERMINATED NORMALLY****
TOTAL RUN TIME: 0 days 0 hours 0 minutes 10 seconds 686 msec
