
                                 *****************
                                 * O   R   C   A *
                                 *****************

           --- An Ab Initio, DFT and Semiempirical electronic structure package ---

                  #######################################################
                  #                        -***-                        #
                  #          Department of theory and spectroscopy      #
                  #               Directorship: Frank Neese             #
                  #        Max Planck Institute fuer Kohlenforschung    #
                  #                Kaiser Wilhelm Platz 1               #
                  #                 D-45470 Muelheim/Ruhr               #
                  #                      Germany                        #
                  #                                                     #
                  #                  All rights reserved                #
                  #                        -***-                        #
                  #######################################################


                         Program Version 4.2.0 -  RELEASE  -


 With contributions from (in alphabetic order):
   Daniel Aravena         : Magnetic Suceptibility
   Michael Atanasov       : Ab Initio Ligand Field Theory (pilot matlab implementation)
   Alexander A. Auer      : GIAO ZORA, VPT2
   Ute Becker             : Parallelization
   Giovanni Bistoni       : ED, misc. LED, open-shell LED, HFLED
   Martin Brehm           : Molecular dynamics
   Dmytro Bykov           : SCF Hessian
   Vijay G. Chilkuri      : MRCI spin determinant printing, contributions to CSF-ICE
   Dipayan Datta          : RHF DLPNO-CCSD density
   Achintya Kumar Dutta   : EOM-CC, STEOM-CC
   Dmitry Ganyushin       : Spin-Orbit,Spin-Spin,Magnetic field MRCI
   Miquel Garcia          : C-PCM Hessian, Gaussian charge scheme
   Yang Guo               : DLPNO-NEVPT2, CIM, IAO-localization
   Andreas Hansen         : Spin unrestricted coupled pair/coupled cluster methods
   Benjamin Helmich-Paris : CASSCF linear response (MC-RPA)
   Lee Huntington         : MR-EOM, pCC
   Robert Izsak           : Overlap fitted RIJCOSX, COSX-SCS-MP3, EOM
   Christian Kollmar      : KDIIS, OOCD, Brueckner-CCSD(T), CCSD density
   Simone Kossmann        : Meta GGA functionals, TD-DFT gradient, OOMP2, MP2 Hessian
   Martin Krupicka        : AUTO-CI
   Lucas Lang             : DCDCAS
   Dagmar Lenk            : GEPOL surface, SMD
   Dimitrios Liakos       : Extrapolation schemes; Compound Job, initial MDCI parallelization
   Dimitrios Manganas     : Further ROCIS development; embedding schemes
   Dimitrios Pantazis     : SARC Basis sets
   Taras Petrenko         : DFT Hessian,TD-DFT gradient, ASA, ECA, R-Raman, ABS, FL, XAS/XES, NRVS
   Peter Pinski           : DLPNO-MP2, DLPNO-MP2 Gradient
   Christoph Reimann      : Effective Core Potentials
   Marius Retegan         : Local ZFS, SOC
   Christoph Riplinger    : Optimizer, TS searches, QM/MM, DLPNO-CCSD(T), (RO)-DLPNO pert. Triples
   Tobias Risthaus        : Range-separated hybrids, TD-DFT gradient, RPA, STAB
   Michael Roemelt        : Original ROCIS implementation
   Masaaki Saitow         : Open-shell DLPNO-CCSD energy and density
   Barbara Sandhoefer     : DKH picture change effects
   Avijit Sen             : IP-ROCIS
   Kantharuban Sivalingam : CASSCF convergence, NEVPT2, FIC-MRCI
   Bernardo de Souza      : ESD, SOC TD-DFT
   Georgi Stoychev        : AutoAux, RI-MP2 NMR
   Willem Van den Heuvel  : Paramagnetic NMR
   Boris Wezisla          : Elementary symmetry handling
   Frank Wennmohs         : Technical directorship


 We gratefully acknowledge several colleagues who have allowed us to
 interface, adapt or use parts of their codes:
   Stefan Grimme, W. Hujo, H. Kruse,             : VdW corrections, initial TS optimization,
                  C. Bannwarth                     DFT functionals, gCP, sTDA/sTD-DF
   Ed Valeev, F. Pavosevic, A. Kumar             : LibInt (2-el integral package), F12 methods
   Garnet Chan, S. Sharma, J. Yang, R. Olivares  : DMRG
   Ulf Ekstrom                                   : XCFun DFT Library
   Mihaly Kallay                                 : mrcc  (arbitrary order and MRCC methods)
   Andreas Klamt, Michael Diedenhofen            : otool_cosmo (COSMO solvation model)
   Jiri Pittner, Ondrej Demel                    : Mk-CCSD
   Frank Weinhold                                : gennbo (NPA and NBO analysis)
   Christopher J. Cramer and Donald G. Truhlar   : smd solvation model
   Lars Goerigk                                  : TD-DFT with DH, B97 family of functionals
   V. Asgeirsson, H. Jonsson                     : NEB implementation
   FAccTs GmbH                                   : IRC, NEB, NEB-TS, Multilevel, MM, QM/MM, CI optimization
   S Lehtola, MJT Oliveira, MAL Marques          : LibXC Library


 Your calculation uses the libint2 library for the computation of 2-el integrals
 For citations please refer to: http://libint.valeyev.net

 Your ORCA version has been built with support for libXC version: 4.2.3
 For citations please refer to: https://tddft.org/programs/libxc/

 This ORCA versions uses:
   CBLAS   interface :  Fast vector & matrix operations
   LAPACKE interface :  Fast linear algebra routines
   SCALAPACK package :  Parallel linear algebra routines


Your calculation utilizes the atom-pairwise dispersion correction
with the Becke-Johnson damping scheme (D3BJ)
Cite in your paper:
S.Grimme, S.Ehrlich, L.Goerigk, J Comput Chem, (2011), 32, 1456–1465 
S.Grimme, J.Antony, S.Ehrlich and H.Krieg, J.Chem.Phys., 132, (2010), 154104 
   

----- Orbital basis set information -----
Your calculation utilizes the basis: aug-cc-pVTZ 
    H, B-Ne : Obtained from the ccRepo (grant-hill.group.shef.ac.uk/ccrepo) Feb. 2017
              R. A. Kendall, T. H. Dunning, Jr., R. J. Harrison, J. Chem. Phys. 96, 6796 (1992)
         He : Obtained from the ccRepo (grant-hill.group.shef.ac.uk/ccrepo) Feb. 2017
              D. E. Woon, T. H. Dunning, Jr., J. Chem. Phys. 100, 2975 (1994)
  Li-Be, Na : Obtained from the ccRepo (grant-hill.group.shef.ac.uk/ccrepo) Feb. 2017
              B. P. Prascher, D. E. Woon, K. A. Peterson, T. H. Dunning, Jr., A. K. Wilson, Theor. Chem. Acc. 128, 69 (2011)
         Mg : Obtained from the Peterson Research Group Website (tyr0.chem.wsu.edu/~kipeters) Feb. 2017
              B. P. Prascher, D. E. Woon, K. A. Peterson, T. H. Dunning, Jr., A. K. Wilson, Theor. Chem. Acc. 128, 69 (2011)
      Al-Ar : Obtained from the ccRepo (grant-hill.group.shef.ac.uk/ccrepo) Feb. 2017
              D. E. Woon, T. H. Dunning, Jr., J. Chem. Phys. 98, 1358 (1993)
      Sc-Zn : Obtained from the ccRepo (grant-hill.group.shef.ac.uk/ccrepo) Feb. 2017
              N. B. Balabanov, K. A. Peterson, J. Chem. Phys. 123, 064107 (2005)
              N. B. Balabanov, K. A. Peterson, J. Chem. Phys. 125, 074110 (2006)
      Ga-Kr : Obtained from the ccRepo (grant-hill.group.shef.ac.uk/ccrepo) Feb. 2017
              A. K. Wilson, D. E. Woon, K. A. Peterson, T. H. Dunning, Jr., J. Chem. Phys. 110, 7667 (1999)
     Ag, Au : Obtained from the Peterson Research Group Website (tyr0.chem.wsu.edu/~kipeters) Feb. 2017
              K. A. Peterson, C. Puzzarini, Theor. Chem. Acc. 114, 283 (2005)

----- AuxJ basis set information -----
Your calculation utilizes the auxiliary basis: def2/J
   F. Weigend, Phys. Chem. Chem. Phys. 8, 1057 (2006).

================================================================================
                                        WARNINGS
                       Please study these warnings very carefully!
================================================================================


WARNING: your system is open-shell and RHF/RKS was chosen
  ===> : WILL SWITCH to UHF/UKS


INFO   : the flag for use of LIBINT has been found!

================================================================================
                                       INPUT FILE
================================================================================
NAME = 45_NiCl.in
|  1> #
|  2> # 45_NiCl tpss/aug-cc-pvtz
|  3> #
|  4> ! tpss d3bj aug-cc-pvtz def2/j grid4 nofinalgrid
|  5> 
|  6> *xyz 0 2
|  7>   Ni  0.00000000000000      0.00000000000000     -0.04672403924217
|  8>   Cl  0.00000000000000      0.00000000000000      2.04672403924217
|  9> *
| 10> 
| 11> %pal
| 12> nprocs 24
| 13> end
| 14> 
| 15> 
| 16>                          ****END OF INPUT****
================================================================================

                       ****************************
                       * Single Point Calculation *
                       ****************************

---------------------------------
CARTESIAN COORDINATES (ANGSTROEM)
---------------------------------
  Ni     0.000000    0.000000   -0.046724
  Cl     0.000000    0.000000    2.046724

----------------------------
CARTESIAN COORDINATES (A.U.)
----------------------------
  NO LB      ZA    FRAG     MASS         X           Y           Z
   0 Ni   28.0000    0    58.700    0.000000    0.000000   -0.088296
   1 Cl   17.0000    0    35.453    0.000000    0.000000    3.867748

--------------------------------
INTERNAL COORDINATES (ANGSTROEM)
--------------------------------
 Ni     0   0   0     0.000000000000     0.00000000     0.00000000
 Cl     1   0   0     2.093448078484     0.00000000     0.00000000

---------------------------
INTERNAL COORDINATES (A.U.)
---------------------------
 Ni     0   0   0     0.000000000000     0.00000000     0.00000000
 Cl     1   0   0     3.956043543919     0.00000000     0.00000000

---------------------
BASIS SET INFORMATION
---------------------
There are 2 groups of distinct atoms

 Group   1 Type Ni  : 116s77p23d3f2g contracted to 8s7p5d3f2g pattern {19191919191911/151515151511/77711/111/11}
 Group   2 Type Cl  : 42s17p3d2f contracted to 6s5p3d2f pattern {131313111/77111/111/11}

Atom   0Ni   basis set group =>   1
Atom   1Cl   basis set group =>   2
---------------------------------
AUXILIARY/J BASIS SET INFORMATION
---------------------------------
There are 2 groups of distinct atoms

 Group   1 Type Ni  : 19s5p5d3f3g contracted to 8s5p5d2f3g pattern {121111111/11111/11111/21/111}
 Group   2 Type Cl  : 14s5p5d2f1g contracted to 8s4p3d1f1g pattern {71111111/2111/311/2/1}

Atom   0Ni   basis set group =>   1
Atom   1Cl   basis set group =>   2


           ************************************************************
           *        Program running with 24 parallel MPI-processes    *
           *              working on a common directory               *
           ************************************************************
------------------------------------------------------------------------------
                           ORCA GTO INTEGRAL CALCULATION
                           -- RI-GTO INTEGRALS CHOSEN --
------------------------------------------------------------------------------

                         BASIS SET STATISTICS AND STARTUP INFO

Gaussian basis set:
 # of primitive gaussian shells          ...  285
 # of primitive gaussian functions       ...  623
 # of contracted shells                  ...   41
 # of contracted basis functions         ...  143
 Highest angular momentum                ...    4
 Maximum contraction depth               ...   19
Auxiliary gaussian basis set:
 # of primitive gaussian shells          ...   62
 # of primitive gaussian functions       ...  184
 # of contracted shells                  ...   40
 # of contracted aux-basis functions     ...  140
 Highest angular momentum                ...    4
 Maximum contraction depth               ...   12
Ratio of auxiliary to basis functions    ...  0.98
Integral package used                  ... LIBINT
 One Electron integrals                  ... done
 Ordering auxiliary basis shells         ... done
 Integral threshhold             Thresh  ...  1.000e-10
 Primitive cut-off               TCut    ...  1.000e-11
 Pre-screening matrix                    ... done
 Shell pair data                         ... 
 Ordering of the shell pairs             ... done (   0.000 sec) 861 of 861 pairs
 Determination of significant pairs      ... done (   0.000 sec)
 Creation of shell pair data             ... done (   0.001 sec)
 Storage of shell pair data              ... done (   0.003 sec)
 Shell pair data done in (   0.004 sec)
 Computing two index integrals           ... done
 Cholesky decomposition of the V-matrix  ... done


Timings:
 Total evaluation time                   ...   3.164 sec (  0.053 min)
 One electron matrix time                ...   0.043 sec (  0.001 min) =  1.4%
 Schwartz matrix evaluation time         ...   3.086 sec (  0.051 min) = 97.5%
 Two index repulsion integral time       ...   0.001 sec (  0.000 min) =  0.0%
 Cholesky decomposition of V             ...   0.001 sec (  0.000 min) =  0.0%
 Three index repulsion integral time     ...   0.000 sec (  0.000 min) =  0.0%



           ************************************************************
           *        Program running with 24 parallel MPI-processes    *
           *              working on a common directory               *
           ************************************************************
-------------------------------------------------------------------------------
                                 ORCA SCF
-------------------------------------------------------------------------------

------------
SCF SETTINGS
------------
Hamiltonian:
 Density Functional     Method          .... DFT(GTOs)
 Exchange Functional    Exchange        .... TPSS
 Correlation Functional Correlation     .... TPSS
 LDA part of GGA corr.  LDAOpt          .... PW91-LDA
 Gradients option       PostSCFGGA      .... off
   Density functional embedding theory  .... OFF
   NL short-range parameter             ....  5.000000
 RI-approximation to the Coulomb term is turned on
   Number of auxiliary basis functions  .... 140


General Settings:
 Integral files         IntName         .... 45_NiCl
 Hartree-Fock type      HFTyp           .... UHF
 Total Charge           Charge          ....    0
 Multiplicity           Mult            ....    2
 Number of Electrons    NEL             ....   45
 Basis Dimension        Dim             ....  143
 Nuclear Repulsion      ENuc            ....    120.3222347569 Eh

Convergence Acceleration:
 DIIS                   CNVDIIS         .... on
   Start iteration      DIISMaxIt       ....    12
   Startup error        DIISStart       ....  0.200000
   # of expansion vecs  DIISMaxEq       ....     5
   Bias factor          DIISBfac        ....   1.050
   Max. coefficient     DIISMaxC        ....  10.000
 Newton-Raphson         CNVNR           .... off
 SOSCF                  CNVSOSCF        .... off
 Level Shifting         CNVShift        .... on
   Level shift para.    LevelShift      ....    0.2500
   Turn off err/grad.   ShiftErr        ....    0.0010
 Zerner damping         CNVZerner       .... off
 Static damping         CNVDamp         .... on
   Fraction old density DampFac         ....    0.7000
   Max. Damping (<1)    DampMax         ....    0.9800
   Min. Damping (>=0)   DampMin         ....    0.0000
   Turn off err/grad.   DampErr         ....    0.1000
 Fernandez-Rico         CNVRico         .... off

SCF Procedure:
 Maximum # iterations   MaxIter         ....   125
 SCF integral mode      SCFMode         .... Direct
   Integral package                     .... LIBINT
 Reset frequency        DirectResetFreq ....    20
 Integral Threshold     Thresh          ....  1.000e-10 Eh
 Primitive CutOff       TCut            ....  1.000e-11 Eh

Convergence Tolerance:
 Convergence Check Mode ConvCheckMode   .... Total+1el-Energy
 Convergence forced     ConvForced      .... 0
 Energy Change          TolE            ....  1.000e-06 Eh
 1-El. energy change                    ....  1.000e-03 Eh
 DIIS Error             TolErr          ....  1.000e-06


Diagonalization of the overlap matrix:
Smallest eigenvalue                        ... 2.313e-04
Time for diagonalization                   ...    0.004 sec
Threshold for overlap eigenvalues          ... 1.000e-08
Number of eigenvalues below threshold      ... 0
Time for construction of square roots      ...    0.002 sec
Total time needed                          ...    0.007 sec

-------------------
DFT GRID GENERATION
-------------------

General Integration Accuracy     IntAcc      ...  4.670
Radial Grid Type                 RadialGrid  ... Gauss-Chebyshev
Angular Grid (max. acc.)         AngularGrid ... Lebedev-302
Angular grid pruning method      GridPruning ... 3 (G Style)
Weight generation scheme         WeightScheme... Becke
Basis function cutoff            BFCut       ...    1.0000e-10
Integration weight cutoff        WCut        ...    1.0000e-14
Grids for H and He will be reduced by one unit

# of grid points (after initial pruning)     ...  16402 (   0.0 sec)
# of grid points (after weights+screening)   ...  16374 (   0.0 sec)
nearest neighbour list constructed           ...    0.0 sec
Grid point re-assignment to atoms done       ...    0.0 sec
Grid point division into batches done        ...    0.1 sec
Reduced shell lists constructed in    0.1 sec

Total number of grid points                  ...    16374
Total number of batches                      ...      256
Average number of points per batch           ...       63
Average number of grid points per atom       ...     8187
Average number of shells per batch           ...    15.25 (37.20%)
Average number of basis functions per batch  ...    36.92 (25.82%)
Average number of large shells per batch     ...     7.92 (51.91%)
Average number of large basis fcns per batch ...    19.25 (52.14%)
Maximum spatial batch extension              ...  23.02, 23.02, 16.62 au
Average spatial batch extension              ...   0.79,  0.79,  0.61 au

Time for grid setup =    0.166 sec

------------------------------
INITIAL GUESS: MODEL POTENTIAL
------------------------------
Loading Hartree-Fock densities                     ... done
Calculating cut-offs                               ... done
Setting up the integral package                    ... done
Initializing the effective Hamiltonian             ... done
Starting the Coulomb interaction                   ... done (   0.0 sec)
Reading the grid                                   ... done
Mapping shells                                     ... done
Starting the XC term evaluation                    ... done (   0.0 sec)
  promolecular density results
     # of electrons  =     45.000025637
     EX              =    -88.908880485
     EC              =     -1.940581708
     EX+EC           =    -90.849462193
Transforming the Hamiltonian                       ... done (   0.0 sec)
Diagonalizing the Hamiltonian                      ... done (   0.0 sec)
Back transforming the eigenvectors                 ... done (   0.0 sec)
Now organizing SCF variables                       ... done
                      ------------------
                      INITIAL GUESS DONE (   0.3 sec)
                      ------------------
--------------
SCF ITERATIONS
--------------
ITER       Energy         Delta-E        Max-DP      RMS-DP      [F,P]     Damp
               ***  Starting incremental Fock matrix formation  ***
  0  -1968.5731470803   0.000000000000 0.03983170  0.00092445  0.3289448 0.7000
  1  -1968.6100704418  -0.036923361504 0.02003727  0.00040950  0.0602664 0.7000
                               ***Turning on DIIS***
  2  -1968.6264412872  -0.016370845316 0.03169974  0.00077893  0.0588406 0.0000
  3  -1968.6523344483  -0.025893161120 0.00505291  0.00011803  0.1397097 0.7000
  4  -1968.6581599462  -0.005825497935 0.00661682  0.00011199  0.1047110 0.7000
  5  -1968.6624874736  -0.004327527350 0.02217814  0.00031024  0.0743266 0.0000
  6  -1968.6685451066  -0.006057632998 0.00411636  0.00004951  0.0031088 0.0000
  7  -1968.6686209562  -0.000075849673 0.00256882  0.00002857  0.0016852 0.0000
  8  -1968.6686464795  -0.000025523279 0.00161826  0.00001881  0.0011592 0.0000
  9  -1968.6686573712  -0.000010891699 0.00310800  0.00003343  0.0008100 0.0000
 10  -1968.6686663698  -0.000008998582 0.00044001  0.00000491  0.0002019 0.0000
 11  -1968.6686660776   0.000000292150 0.00007331  0.00000104  0.0000951 0.0000
 12  -1968.6686658917   0.000000185916 0.00004130  0.00000041  0.0000262 0.0000
                 **** Energy Check signals convergence ****

               *****************************************************
               *                     SUCCESS                       *
               *           SCF CONVERGED AFTER  13 CYCLES          *
               *****************************************************


----------------
TOTAL SCF ENERGY
----------------

Total Energy       :        -1968.66866592 Eh          -53570.19786 eV

Components:
Nuclear Repulsion  :          120.32223476 Eh            3274.13446 eV
Electronic Energy  :        -2088.99090068 Eh          -56844.33232 eV
One Electron Energy:        -2973.38275976 Eh          -80909.85827 eV
Two Electron Energy:          884.39185908 Eh           24065.52595 eV

Virial components:
Potential Energy   :        -3933.89200585 Eh         -107046.64363 eV
Kinetic Energy     :         1965.22333993 Eh           53476.44577 eV
Virial Ratio       :            2.00175315


DFT components:
N(Alpha)           :       22.999999881496 electrons
N(Beta)            :       22.000000509537 electrons
N(Total)           :       45.000000391033 electrons
E(X)               :      -89.589754594666 Eh       
E(C)               :       -1.960607667420 Eh       
E(XC)              :      -91.550362262085 Eh       
DFET-embed. en.    :        0.000000000000 Eh       

---------------
SCF CONVERGENCE
---------------

  Last Energy change         ...   -2.8094e-08  Tolerance :   1.0000e-06
  Last MAX-Density change    ...    6.6237e-06  Tolerance :   1.0000e-05
  Last RMS-Density change    ...    1.3058e-07  Tolerance :   1.0000e-06
  Last DIIS Error            ...    2.3100e-05  Tolerance :   1.0000e-06

             **** THE GBW FILE WAS UPDATED (45_NiCl.gbw) ****
             **** DENSITY FILE WAS UPDATED (45_NiCl.scfp) ****
             **** ENERGY FILE WAS UPDATED (45_NiCl.en.tmp) ****
----------------------
UHF SPIN CONTAMINATION
----------------------

Warning: in a DFT calculation there is little theoretical justification to 
         calculate <S**2> as in Hartree-Fock theory. We will do it anyways
         but you should keep in mind that the values have only limited relevance

Expectation value of <S**2>     :     0.752885
Ideal value S*(S+1) for S=0.5   :     0.750000
Deviation                       :     0.002885

             **** THE GBW FILE WAS UPDATED (45_NiCl.gbw) ****
             **** DENSITY FILE WAS UPDATED (45_NiCl.scfp) ****
----------------
ORBITAL ENERGIES
----------------
                 SPIN UP ORBITALS
  NO   OCC          E(Eh)            E(eV) 
   0   1.0000    -298.924114     -8134.1387 
   1   1.0000    -100.975415     -2747.6807 
   2   1.0000     -35.324892      -961.2392 
   3   1.0000     -30.781909      -837.6183 
   4   1.0000     -30.752392      -836.8151 
   5   1.0000     -30.752392      -836.8151 
   6   1.0000      -9.199557      -250.3327 
   7   1.0000      -6.976772      -189.8476 
   8   1.0000      -6.971754      -189.7111 
   9   1.0000      -6.971754      -189.7111 
  10   1.0000      -3.864452      -105.1571 
  11   1.0000      -2.517410       -68.5022 
  12   1.0000      -2.451561       -66.7104 
  13   1.0000      -2.451561       -66.7104 
  14   1.0000      -0.703517       -19.1437 
  15   1.0000      -0.322044        -8.7633 
  16   1.0000      -0.269112        -7.3229 
  17   1.0000      -0.269112        -7.3229 
  18   1.0000      -0.235185        -6.3997 
  19   1.0000      -0.197927        -5.3859 
  20   1.0000      -0.197927        -5.3859 
  21   1.0000      -0.191742        -5.2176 
  22   1.0000      -0.191740        -5.2175 
  23   0.0000      -0.132489        -3.6052 
  24   0.0000      -0.021174        -0.5762 
  25   0.0000      -0.021174        -0.5762 
  26   0.0000       0.006852         0.1865 
  27   0.0000       0.008633         0.2349 
  28   0.0000       0.035537         0.9670 
  29   0.0000       0.035537         0.9670 
  30   0.0000       0.067552         1.8382 
  31   0.0000       0.073005         1.9866 
  32   0.0000       0.073005         1.9866 
  33   0.0000       0.074225         2.0198 
  34   0.0000       0.088685         2.4132 
  35   0.0000       0.088685         2.4132 
  36   0.0000       0.113982         3.1016 
  37   0.0000       0.117217         3.1897 
  38   0.0000       0.117218         3.1897 
  39   0.0000       0.132774         3.6130 
  40   0.0000       0.194637         5.2963 
  41   0.0000       0.194637         5.2963 
  42   0.0000       0.231391         6.2965 
  43   0.0000       0.258277         7.0281 
  44   0.0000       0.258279         7.0281 
  45   0.0000       0.263918         7.1816 
  46   0.0000       0.314456         8.5568 
  47   0.0000       0.314456         8.5568 
  48   0.0000       0.353686         9.6243 
  49   0.0000       0.353689         9.6244 
  50   0.0000       0.355754         9.6805 
  51   0.0000       0.418563        11.3897 
  52   0.0000       0.418563        11.3897 
  53   0.0000       0.486559        13.2399 
  54   0.0000       0.565935        15.3999 
  55   0.0000       0.565935        15.3999 
  56   0.0000       0.583729        15.8841 
  57   0.0000       0.725795        19.7499 
  58   0.0000       0.743083        20.2203 
  59   0.0000       0.743089        20.2205 
  60   0.0000       0.765084        20.8190 
  61   0.0000       0.765085        20.8190 
  62   0.0000       0.805703        21.9243 
  63   0.0000       0.874497        23.7963 
  64   0.0000       0.874497        23.7963 
  65   0.0000       0.958345        26.0779 
  66   0.0000       0.967887        26.3376 
  67   0.0000       0.967889        26.3376 
  68   0.0000       0.992324        27.0025 
  69   0.0000       0.992324        27.0025 
  70   0.0000       1.131114        30.7792 
  71   0.0000       1.131114        30.7792 
  72   0.0000       1.179212        32.0880 
  73   0.0000       1.240211        33.7479 
  74   0.0000       1.240211        33.7479 
  75   0.0000       1.359561        36.9955 
  76   0.0000       1.369398        37.2632 
  77   0.0000       1.369407        37.2634 
  78   0.0000       1.415088        38.5065 
  79   0.0000       1.415088        38.5065 
  80   0.0000       1.427650        38.8483 
  81   0.0000       1.427651        38.8484 
  82   0.0000       1.590419        43.2775 
  83   0.0000       1.746857        47.5344 
  84   0.0000       1.746857        47.5344 
  85   0.0000       1.978583        53.8400 
  86   0.0000       2.216027        60.3012 
  87   0.0000       2.216258        60.3075 
  88   0.0000       2.333306        63.4925 
  89   0.0000       2.333306        63.4925 
  90   0.0000       2.406207        65.4762 
  91   0.0000       2.425060        65.9892 
  92   0.0000       2.425060        65.9892 
  93   0.0000       2.756269        75.0019 
  94   0.0000       2.756269        75.0019 
  95   0.0000       2.789784        75.9139 
  96   0.0000       2.789830        75.9151 
  97   0.0000       2.811671        76.5094 
  98   0.0000       2.858806        77.7921 
  99   0.0000       2.858806        77.7921 
 100   0.0000       3.084340        83.9292 
 101   0.0000       3.553035        96.6830 
 102   0.0000       3.805539       103.5540 
 103   0.0000       3.805539       103.5540 
 104   0.0000       3.858608       104.9981 
 105   0.0000       3.858627       104.9986 
 106   0.0000       3.869777       105.3020 
 107   0.0000       3.869777       105.3020 
 108   0.0000       3.969852       108.0252 
 109   0.0000       3.969852       108.0252 
 110   0.0000       4.018272       109.3427 
 111   0.0000       4.303116       117.0937 
 112   0.0000       4.989367       135.7676 
 113   0.0000       4.989395       135.7683 
 114   0.0000       4.989395       135.7683 
 115   0.0000       4.989601       135.7739 
 116   0.0000       4.999718       136.0492 
 117   0.0000       4.999753       136.0502 
 118   0.0000       5.067745       137.9003 
 119   0.0000       5.067908       137.9048 
 120   0.0000       5.067908       137.9048 
 121   0.0000       5.568608       151.5295 
 122   0.0000       5.568630       151.5301 
 123   0.0000       5.724499       155.7715 
 124   0.0000       5.724499       155.7715 
 125   0.0000       5.975864       162.6115 
 126   0.0000       6.619641       180.1296 
 127   0.0000      12.328451       335.4742 
 128   0.0000      12.328451       335.4742 
 129   0.0000      12.345247       335.9313 
 130   0.0000      12.345421       335.9360 
 131   0.0000      12.379581       336.8655 
 132   0.0000      12.379581       336.8655 
 133   0.0000      12.390706       337.1682 
 134   0.0000      13.956789       379.7835 
 135   0.0000      13.957247       379.7960 
 136   0.0000      13.972240       380.2040 
 137   0.0000      13.972240       380.2040 
 138   0.0000      13.974624       380.2689 
 139   0.0000      13.974672       380.2701 
 140   0.0000      13.975692       380.2979 
 141   0.0000      13.975692       380.2979 
 142   0.0000      14.046145       382.2150 

                 SPIN DOWN ORBITALS
  NO   OCC          E(Eh)            E(eV) 
   0   1.0000    -298.923740     -8134.1285 
   1   1.0000    -100.975516     -2747.6835 
   2   1.0000     -35.309765      -960.8276 
   3   1.0000     -30.762239      -837.0831 
   4   1.0000     -30.743796      -836.5812 
   5   1.0000     -30.743796      -836.5812 
   6   1.0000      -9.199636      -250.3348 
   7   1.0000      -6.976912      -189.8514 
   8   1.0000      -6.971868      -189.7142 
   9   1.0000      -6.971868      -189.7142 
  10   1.0000      -3.827422      -104.1494 
  11   1.0000      -2.449159       -66.6450 
  12   1.0000      -2.430725       -66.1434 
  13   1.0000      -2.430725       -66.1434 
  14   1.0000      -0.703610       -19.1462 
  15   1.0000      -0.308717        -8.4006 
  16   1.0000      -0.266539        -7.2529 
  17   1.0000      -0.266539        -7.2529 
  18   1.0000      -0.189818        -5.1652 
  19   1.0000      -0.189818        -5.1652 
  20   1.0000      -0.165946        -4.5156 
  21   1.0000      -0.165945        -4.5156 
  22   0.0000      -0.156765        -4.2658 
  23   0.0000      -0.117132        -3.1873 
  24   0.0000      -0.014013        -0.3813 
  25   0.0000      -0.014013        -0.3813 
  26   0.0000       0.009576         0.2606 
  27   0.0000       0.010463         0.2847 
  28   0.0000       0.039393         1.0719 
  29   0.0000       0.039393         1.0719 
  30   0.0000       0.071196         1.9373 
  31   0.0000       0.076737         2.0881 
  32   0.0000       0.076737         2.0881 
  33   0.0000       0.077436         2.1071 
  34   0.0000       0.090344         2.4584 
  35   0.0000       0.090345         2.4584 
  36   0.0000       0.118549         3.2259 
  37   0.0000       0.118549         3.2259 
  38   0.0000       0.118604         3.2274 
  39   0.0000       0.134927         3.6716 
  40   0.0000       0.203384         5.5344 
  41   0.0000       0.203384         5.5344 
  42   0.0000       0.239578         6.5192 
  43   0.0000       0.259566         7.0631 
  44   0.0000       0.259567         7.0632 
  45   0.0000       0.265027         7.2117 
  46   0.0000       0.317410         8.6372 
  47   0.0000       0.317410         8.6372 
  48   0.0000       0.362706         9.8697 
  49   0.0000       0.364506         9.9187 
  50   0.0000       0.364507         9.9187 
  51   0.0000       0.423066        11.5122 
  52   0.0000       0.423066        11.5122 
  53   0.0000       0.493357        13.4249 
  54   0.0000       0.567617        15.4456 
  55   0.0000       0.567617        15.4456 
  56   0.0000       0.592859        16.1325 
  57   0.0000       0.730396        19.8751 
  58   0.0000       0.742953        20.2168 
  59   0.0000       0.742959        20.2169 
  60   0.0000       0.765952        20.8426 
  61   0.0000       0.765952        20.8426 
  62   0.0000       0.806563        21.9477 
  63   0.0000       0.887407        24.1476 
  64   0.0000       0.887407        24.1476 
  65   0.0000       0.969779        26.3890 
  66   0.0000       0.970828        26.4176 
  67   0.0000       0.970829        26.4176 
  68   0.0000       0.993769        27.0418 
  69   0.0000       0.993769        27.0418 
  70   0.0000       1.136302        30.9203 
  71   0.0000       1.136302        30.9203 
  72   0.0000       1.183454        32.2034 
  73   0.0000       1.268640        34.5215 
  74   0.0000       1.268640        34.5215 
  75   0.0000       1.386380        37.7253 
  76   0.0000       1.386388        37.7255 
  77   0.0000       1.392931        37.9036 
  78   0.0000       1.426363        38.8133 
  79   0.0000       1.426363        38.8133 
  80   0.0000       1.440425        39.1959 
  81   0.0000       1.440425        39.1959 
  82   0.0000       1.602123        43.5960 
  83   0.0000       1.753752        47.7220 
  84   0.0000       1.753752        47.7220 
  85   0.0000       1.995406        54.2978 
  86   0.0000       2.215836        60.2960 
  87   0.0000       2.216068        60.3023 
  88   0.0000       2.333662        63.5022 
  89   0.0000       2.333662        63.5022 
  90   0.0000       2.407545        65.5126 
  91   0.0000       2.426425        66.0264 
  92   0.0000       2.426425        66.0264 
  93   0.0000       2.756035        74.9955 
  94   0.0000       2.756035        74.9955 
  95   0.0000       2.790075        75.9218 
  96   0.0000       2.790121        75.9231 
  97   0.0000       2.815359        76.6098 
  98   0.0000       2.859523        77.8116 
  99   0.0000       2.859523        77.8116 
 100   0.0000       3.095269        84.2266 
 101   0.0000       3.581915        97.4689 
 102   0.0000       3.829782       104.2137 
 103   0.0000       3.829782       104.2137 
 104   0.0000       3.861432       105.0749 
 105   0.0000       3.861450       105.0754 
 106   0.0000       3.891588       105.8955 
 107   0.0000       3.891589       105.8955 
 108   0.0000       3.998064       108.7928 
 109   0.0000       3.998064       108.7928 
 110   0.0000       4.069560       110.7384 
 111   0.0000       4.335099       117.9641 
 112   0.0000       4.993258       135.8735 
 113   0.0000       4.993258       135.8735 
 114   0.0000       5.011027       136.3570 
 115   0.0000       5.011062       136.3579 
 116   0.0000       5.015642       136.4825 
 117   0.0000       5.015850       136.4882 
 118   0.0000       5.097118       138.6996 
 119   0.0000       5.097118       138.6996 
 120   0.0000       5.120739       139.3424 
 121   0.0000       5.591934       152.1642 
 122   0.0000       5.591950       152.1647 
 123   0.0000       5.738541       156.1536 
 124   0.0000       5.738541       156.1536 
 125   0.0000       5.980235       162.7305 
 126   0.0000       6.675454       181.6483 
 127   0.0000      12.358433       336.2901 
 128   0.0000      12.358614       336.2950 
 129   0.0000      12.360165       336.3372 
 130   0.0000      12.360165       336.3372 
 131   0.0000      12.445800       338.6674 
 132   0.0000      12.445800       338.6674 
 133   0.0000      12.489817       339.8652 
 134   0.0000      13.990749       380.7076 
 135   0.0000      13.990749       380.7076 
 136   0.0000      13.992194       380.7469 
 137   0.0000      13.992629       380.7588 
 138   0.0000      14.004074       381.0702 
 139   0.0000      14.004116       381.0714 
 140   0.0000      14.033697       381.8763 
 141   0.0000      14.033697       381.8763 
 142   0.0000      14.116499       384.1295 

                    ********************************
                    * MULLIKEN POPULATION ANALYSIS *
                    ********************************

--------------------------------------------
MULLIKEN ATOMIC CHARGES AND SPIN POPULATIONS
--------------------------------------------
   0 Ni:    0.475774    0.964840
   1 Cl:   -0.475774    0.035160
Sum of atomic charges         :   -0.0000000
Sum of atomic spin populations:    1.0000000

-----------------------------------------------------
MULLIKEN REDUCED ORBITAL CHARGES AND SPIN POPULATIONS
-----------------------------------------------------
CHARGE
  0 Nis       :     6.333722  s :     6.333722
      pz      :     4.058506  p :    12.161695
      px      :     4.051594
      py      :     4.051594
      dz2     :     1.056498  d :     9.019506
      dxz     :     1.983616
      dyz     :     1.983616
      dx2y2   :     1.997887
      dxy     :     1.997887
      f0      :     0.003184  f :     0.009109
      f+1     :     0.002910
      f-1     :     0.002910
      f+2     :     0.000052
      f-2     :     0.000052
      f+3     :     0.000000
      f-3     :     0.000000
      g0      :     0.000071  g :     0.000194
      g+1     :     0.000048
      g-1     :     0.000048
      g+2     :     0.000013
      g-2     :     0.000013
      g+3     :     0.000000
      g-3     :     0.000000
      g+4     :     0.000000
      g-4     :     0.000000
  1 Cls       :     5.970181  s :     5.970181
      pz      :     3.572033  p :    11.468235
      px      :     3.948101
      py      :     3.948101
      dz2     :     0.006069  d :     0.032652
      dxz     :     0.011956
      dyz     :     0.011956
      dx2y2   :     0.001335
      dxy     :     0.001335
      f0      :    -0.000264  f :     0.004706
      f+1     :     0.001773
      f-1     :     0.001773
      f+2     :     0.000712
      f-2     :     0.000712
      f+3     :     0.000000
      f-3     :     0.000000

SPIN
  0 Nis       :     0.120944  s :     0.120944
      pz      :    -0.001903  p :     0.005770
      px      :     0.003836
      py      :     0.003836
      dz2     :     0.834945  d :     0.838698
      dxz     :     0.001539
      dyz     :     0.001539
      dx2y2   :     0.000337
      dxy     :     0.000337
      f0      :    -0.000183  f :    -0.000619
      f+1     :    -0.000209
      f-1     :    -0.000209
      f+2     :    -0.000009
      f-2     :    -0.000009
      f+3     :    -0.000000
      f-3     :    -0.000000
      g0      :     0.000053  g :     0.000046
      g+1     :     0.000008
      g-1     :     0.000008
      g+2     :    -0.000012
      g-2     :    -0.000012
      g+3     :    -0.000000
      g-3     :    -0.000000
      g+4     :     0.000000
      g-4     :     0.000000
  1 Cls       :     0.014487  s :     0.014487
      pz      :     0.029543  p :     0.019435
      px      :    -0.005054
      py      :    -0.005054
      dz2     :     0.001850  d :     0.001265
      dxz     :    -0.000091
      dyz     :    -0.000091
      dx2y2   :    -0.000201
      dxy     :    -0.000201
      f0      :     0.000264  f :    -0.000027
      f+1     :    -0.000030
      f-1     :    -0.000030
      f+2     :    -0.000116
      f-2     :    -0.000116
      f+3     :    -0.000000
      f-3     :    -0.000000


                     *******************************
                     * LOEWDIN POPULATION ANALYSIS *
                     *******************************

-------------------------------------------
LOEWDIN ATOMIC CHARGES AND SPIN POPULATIONS
-------------------------------------------
   0 Ni:    0.080820    0.967523
   1 Cl:   -0.080820    0.032477

----------------------------------------------------
LOEWDIN REDUCED ORBITAL CHARGES AND SPIN POPULATIONS
----------------------------------------------------
CHARGE
  0 Nis       :     6.276900  s :     6.276900
      pz      :     4.190845  p :    12.382434
      px      :     4.095795
      py      :     4.095795
      dz2     :     1.182230  d :     9.196634
      dxz     :     2.015571
      dyz     :     2.015571
      dx2y2   :     1.991631
      dxy     :     1.991631
      f0      :     0.027278  f :     0.062387
      f+1     :     0.017409
      f-1     :     0.017409
      f+2     :     0.000146
      f-2     :     0.000146
      f+3     :     0.000000
      f-3     :     0.000000
      g0      :     0.000415  g :     0.000825
      g+1     :     0.000195
      g-1     :     0.000195
      g+2     :     0.000010
      g-2     :     0.000010
      g+3     :     0.000000
      g-3     :     0.000000
      g+4     :     0.000000
      g-4     :     0.000000
  1 Cls       :     5.632429  s :     5.632429
      pz      :     3.564174  p :    11.171708
      px      :     3.803767
      py      :     3.803767
      dz2     :     0.085732  d :     0.172730
      dxz     :     0.039289
      dyz     :     0.039289
      dx2y2   :     0.004210
      dxy     :     0.004210
      f0      :     0.039998  f :     0.103954
      f+1     :     0.027974
      f-1     :     0.027974
      f+2     :     0.004004
      f-2     :     0.004004
      f+3     :     0.000000
      f-3     :     0.000000

SPIN
  0 Nis       :     0.138513  s :     0.138513
      pz      :     0.003838  p :     0.010241
      px      :     0.003202
      py      :     0.003202
      dz2     :     0.815784  d :     0.819231
      dxz     :     0.001353
      dyz     :     0.001353
      dx2y2   :     0.000370
      dxy     :     0.000370
      f0      :     0.000103  f :    -0.000505
      f+1     :    -0.000286
      f-1     :    -0.000286
      f+2     :    -0.000018
      f-2     :    -0.000018
      f+3     :    -0.000000
      f-3     :    -0.000000
      g0      :     0.000049  g :     0.000042
      g+1     :     0.000005
      g-1     :     0.000005
      g+2     :    -0.000009
      g-2     :    -0.000009
      g+3     :    -0.000000
      g-3     :    -0.000000
      g+4     :     0.000000
      g-4     :     0.000000
  1 Cls       :     0.003826  s :     0.003826
      pz      :     0.027331  p :     0.020034
      px      :    -0.003648
      py      :    -0.003648
      dz2     :     0.007348  d :     0.005867
      dxz     :    -0.000490
      dyz     :    -0.000490
      dx2y2   :    -0.000250
      dxy     :    -0.000250
      f0      :     0.003208  f :     0.002750
      f+1     :    -0.000136
      f-1     :    -0.000136
      f+2     :    -0.000093
      f-2     :    -0.000093
      f+3     :    -0.000000
      f-3     :    -0.000000


                      *****************************
                      * MAYER POPULATION ANALYSIS *
                      *****************************

  NA   - Mulliken gross atomic population
  ZA   - Total nuclear charge
  QA   - Mulliken gross atomic charge
  VA   - Mayer's total valence
  BVA  - Mayer's bonded valence
  FA   - Mayer's free valence

  ATOM       NA         ZA         QA         VA         BVA        FA
  0 Ni    27.5242    28.0000     0.4758     1.8440     0.9899     0.8541
  1 Cl    17.4758    17.0000    -0.4758     0.9946     0.9899     0.0047

  Mayer bond orders larger than 0.100000
B(  0-Ni,  1-Cl) :   0.9899 

-------
TIMINGS
-------

Total SCF time: 0 days 0 hours 0 min 3 sec 

Total time                  ....       3.136 sec
Sum of individual times     ....       2.994 sec  ( 95.5%)

Fock matrix formation       ....       2.563 sec  ( 81.7%)
  Split-RI-J                ....       1.915 sec  ( 74.7% of F)
  XC integration            ....       0.531 sec  ( 20.7% of F)
    Basis function eval.    ....       0.068 sec  ( 12.7% of XC)
    Density eval.           ....       0.072 sec  ( 13.6% of XC)
    XC-Functional eval.     ....       0.019 sec  (  3.5% of XC)
    XC-Potential eval.      ....       0.204 sec  ( 38.4% of XC)
Diagonalization             ....       0.072 sec  (  2.3%)
Density matrix formation    ....       0.010 sec  (  0.3%)
Population analysis         ....       0.007 sec  (  0.2%)
Initial guess               ....       0.149 sec  (  4.8%)
Orbital Transformation      ....       0.000 sec  (  0.0%)
Orbital Orthonormalization  ....       0.000 sec  (  0.0%)
DIIS solution               ....       0.027 sec  (  0.9%)
Grid generation             ....       0.166 sec  (  5.3%)


-------------------------------------------------------------------------------
                          DFT DISPERSION CORRECTION                            
                                                                               
                              DFTD3 V3.1  Rev 1                                
                          USING Becke-Johnson damping                          
-------------------------------------------------------------------------------
The TPSS functional is recognized
Active option DFTDOPT                   ...         4   

molecular C6(AA) [au] = 613.888109 


            DFT-D V3
 parameters
 s6 scaling factor         :     1.0000 
 a1 scaling factor         :     0.4535 
 s8 scaling factor         :     1.9435 
 a2 scaling factor         :     4.4752 
 ad hoc parameters k1-k3   :    16.0000     1.3333    -4.0000 

 Edisp/kcal,au: -0.965179137711  -0.001538110697 
 E6   /kcal   :  -0.340689106 
 E8   /kcal   :  -0.624490032 
 % E8         :  64.701981985 

-------------------------   ----------------
Dispersion correction           -0.001538111
-------------------------   ----------------


-------------------------   --------------------
FINAL SINGLE POINT ENERGY     -1968.670204030525
-------------------------   --------------------


                            ***************************************
                            *     ORCA property calculations      *
                            ***************************************

                                    ---------------------
                                    Active property flags
                                    ---------------------
   (+) Dipole Moment


------------------------------------------------------------------------------
                       ORCA ELECTRIC PROPERTIES CALCULATION
------------------------------------------------------------------------------

Dipole Moment Calculation                       ... on
Quadrupole Moment Calculation                   ... off
Polarizability Calculation                      ... off
GBWName                                         ... 45_NiCl.gbw
Electron density file                           ... 45_NiCl.scfp
The origin for moment calculation is the CENTER OF MASS  = ( 0.000000,  0.000000  1.401339)

-------------
DIPOLE MOMENT
-------------
                                X             Y             Z
Electronic contribution:     -0.00000      -0.00000      -2.10284
Nuclear contribution   :      0.00000       0.00000       0.21916
                        -----------------------------------------
Total Dipole Moment    :     -0.00000      -0.00000      -1.88368
                        -----------------------------------------
Magnitude (a.u.)       :      1.88368
Magnitude (Debye)      :      4.78792



--------------------
Rotational spectrum 
--------------------
 
Rotational constants in cm-1:     0.000000     0.174027     0.174027 
Rotational constants in MHz :     0.000000  5217.185595  5217.185595 

 Dipole components along the rotational axes: 
x,y,z [a.u.] :    -1.883675    -0.000000    -0.000000 
x,y,z [Debye]:    -4.787922    -0.000000    -0.000000 

 

Timings for individual modules:

Sum of individual times         ...        7.120 sec (=   0.119 min)
GTO integral calculation        ...        3.638 sec (=   0.061 min)  51.1 %
SCF iterations                  ...        3.482 sec (=   0.058 min)  48.9 %
                             ****ORCA TERMINATED NORMALLY****
TOTAL RUN TIME: 0 days 0 hours 0 minutes 7 seconds 688 msec
