
                                 *****************
                                 * O   R   C   A *
                                 *****************

           --- An Ab Initio, DFT and Semiempirical electronic structure package ---

                  #######################################################
                  #                        -***-                        #
                  #          Department of theory and spectroscopy      #
                  #               Directorship: Frank Neese             #
                  #        Max Planck Institute fuer Kohlenforschung    #
                  #                Kaiser Wilhelm Platz 1               #
                  #                 D-45470 Muelheim/Ruhr               #
                  #                      Germany                        #
                  #                                                     #
                  #                  All rights reserved                #
                  #                        -***-                        #
                  #######################################################


                         Program Version 4.2.0 -  RELEASE  -


 With contributions from (in alphabetic order):
   Daniel Aravena         : Magnetic Suceptibility
   Michael Atanasov       : Ab Initio Ligand Field Theory (pilot matlab implementation)
   Alexander A. Auer      : GIAO ZORA, VPT2
   Ute Becker             : Parallelization
   Giovanni Bistoni       : ED, misc. LED, open-shell LED, HFLED
   Martin Brehm           : Molecular dynamics
   Dmytro Bykov           : SCF Hessian
   Vijay G. Chilkuri      : MRCI spin determinant printing, contributions to CSF-ICE
   Dipayan Datta          : RHF DLPNO-CCSD density
   Achintya Kumar Dutta   : EOM-CC, STEOM-CC
   Dmitry Ganyushin       : Spin-Orbit,Spin-Spin,Magnetic field MRCI
   Miquel Garcia          : C-PCM Hessian, Gaussian charge scheme
   Yang Guo               : DLPNO-NEVPT2, CIM, IAO-localization
   Andreas Hansen         : Spin unrestricted coupled pair/coupled cluster methods
   Benjamin Helmich-Paris : CASSCF linear response (MC-RPA)
   Lee Huntington         : MR-EOM, pCC
   Robert Izsak           : Overlap fitted RIJCOSX, COSX-SCS-MP3, EOM
   Christian Kollmar      : KDIIS, OOCD, Brueckner-CCSD(T), CCSD density
   Simone Kossmann        : Meta GGA functionals, TD-DFT gradient, OOMP2, MP2 Hessian
   Martin Krupicka        : AUTO-CI
   Lucas Lang             : DCDCAS
   Dagmar Lenk            : GEPOL surface, SMD
   Dimitrios Liakos       : Extrapolation schemes; Compound Job, initial MDCI parallelization
   Dimitrios Manganas     : Further ROCIS development; embedding schemes
   Dimitrios Pantazis     : SARC Basis sets
   Taras Petrenko         : DFT Hessian,TD-DFT gradient, ASA, ECA, R-Raman, ABS, FL, XAS/XES, NRVS
   Peter Pinski           : DLPNO-MP2, DLPNO-MP2 Gradient
   Christoph Reimann      : Effective Core Potentials
   Marius Retegan         : Local ZFS, SOC
   Christoph Riplinger    : Optimizer, TS searches, QM/MM, DLPNO-CCSD(T), (RO)-DLPNO pert. Triples
   Tobias Risthaus        : Range-separated hybrids, TD-DFT gradient, RPA, STAB
   Michael Roemelt        : Original ROCIS implementation
   Masaaki Saitow         : Open-shell DLPNO-CCSD energy and density
   Barbara Sandhoefer     : DKH picture change effects
   Avijit Sen             : IP-ROCIS
   Kantharuban Sivalingam : CASSCF convergence, NEVPT2, FIC-MRCI
   Bernardo de Souza      : ESD, SOC TD-DFT
   Georgi Stoychev        : AutoAux, RI-MP2 NMR
   Willem Van den Heuvel  : Paramagnetic NMR
   Boris Wezisla          : Elementary symmetry handling
   Frank Wennmohs         : Technical directorship


 We gratefully acknowledge several colleagues who have allowed us to
 interface, adapt or use parts of their codes:
   Stefan Grimme, W. Hujo, H. Kruse,             : VdW corrections, initial TS optimization,
                  C. Bannwarth                     DFT functionals, gCP, sTDA/sTD-DF
   Ed Valeev, F. Pavosevic, A. Kumar             : LibInt (2-el integral package), F12 methods
   Garnet Chan, S. Sharma, J. Yang, R. Olivares  : DMRG
   Ulf Ekstrom                                   : XCFun DFT Library
   Mihaly Kallay                                 : mrcc  (arbitrary order and MRCC methods)
   Andreas Klamt, Michael Diedenhofen            : otool_cosmo (COSMO solvation model)
   Jiri Pittner, Ondrej Demel                    : Mk-CCSD
   Frank Weinhold                                : gennbo (NPA and NBO analysis)
   Christopher J. Cramer and Donald G. Truhlar   : smd solvation model
   Lars Goerigk                                  : TD-DFT with DH, B97 family of functionals
   V. Asgeirsson, H. Jonsson                     : NEB implementation
   FAccTs GmbH                                   : IRC, NEB, NEB-TS, Multilevel, MM, QM/MM, CI optimization
   S Lehtola, MJT Oliveira, MAL Marques          : LibXC Library


 Your calculation uses the libint2 library for the computation of 2-el integrals
 For citations please refer to: http://libint.valeyev.net

 Your ORCA version has been built with support for libXC version: 4.2.3
 For citations please refer to: https://tddft.org/programs/libxc/

 This ORCA versions uses:
   CBLAS   interface :  Fast vector & matrix operations
   LAPACKE interface :  Fast linear algebra routines
   SCALAPACK package :  Parallel linear algebra routines


Your calculation utilizes the atom-pairwise dispersion correction
with the Becke-Johnson damping scheme (D3BJ)
Cite in your paper:
S.Grimme, S.Ehrlich, L.Goerigk, J Comput Chem, (2011), 32, 1456–1465 
S.Grimme, J.Antony, S.Ehrlich and H.Krieg, J.Chem.Phys., 132, (2010), 154104 
   

----- Orbital basis set information -----
Your calculation utilizes the basis: aug-cc-pVTZ 
    H, B-Ne : Obtained from the ccRepo (grant-hill.group.shef.ac.uk/ccrepo) Feb. 2017
              R. A. Kendall, T. H. Dunning, Jr., R. J. Harrison, J. Chem. Phys. 96, 6796 (1992)
         He : Obtained from the ccRepo (grant-hill.group.shef.ac.uk/ccrepo) Feb. 2017
              D. E. Woon, T. H. Dunning, Jr., J. Chem. Phys. 100, 2975 (1994)
  Li-Be, Na : Obtained from the ccRepo (grant-hill.group.shef.ac.uk/ccrepo) Feb. 2017
              B. P. Prascher, D. E. Woon, K. A. Peterson, T. H. Dunning, Jr., A. K. Wilson, Theor. Chem. Acc. 128, 69 (2011)
         Mg : Obtained from the Peterson Research Group Website (tyr0.chem.wsu.edu/~kipeters) Feb. 2017
              B. P. Prascher, D. E. Woon, K. A. Peterson, T. H. Dunning, Jr., A. K. Wilson, Theor. Chem. Acc. 128, 69 (2011)
      Al-Ar : Obtained from the ccRepo (grant-hill.group.shef.ac.uk/ccrepo) Feb. 2017
              D. E. Woon, T. H. Dunning, Jr., J. Chem. Phys. 98, 1358 (1993)
      Sc-Zn : Obtained from the ccRepo (grant-hill.group.shef.ac.uk/ccrepo) Feb. 2017
              N. B. Balabanov, K. A. Peterson, J. Chem. Phys. 123, 064107 (2005)
              N. B. Balabanov, K. A. Peterson, J. Chem. Phys. 125, 074110 (2006)
      Ga-Kr : Obtained from the ccRepo (grant-hill.group.shef.ac.uk/ccrepo) Feb. 2017
              A. K. Wilson, D. E. Woon, K. A. Peterson, T. H. Dunning, Jr., J. Chem. Phys. 110, 7667 (1999)
     Ag, Au : Obtained from the Peterson Research Group Website (tyr0.chem.wsu.edu/~kipeters) Feb. 2017
              K. A. Peterson, C. Puzzarini, Theor. Chem. Acc. 114, 283 (2005)

----- AuxJ basis set information -----
Your calculation utilizes the auxiliary basis: def2/J
   F. Weigend, Phys. Chem. Chem. Phys. 8, 1057 (2006).

================================================================================
                                        WARNINGS
                       Please study these warnings very carefully!
================================================================================


WARNING: your system is open-shell and RHF/RKS was chosen
  ===> : WILL SWITCH to UHF/UKS


INFO   : the flag for use of LIBINT has been found!

================================================================================
                                       INPUT FILE
================================================================================
NAME = 46_NiBr.in
|  1> #
|  2> # 46_NiBr tpss/aug-cc-pvtz
|  3> #
|  4> ! tpss d3bj aug-cc-pvtz def2/j grid4 nofinalgrid
|  5> 
|  6> *xyz 0 2
|  7>   Ni  0.00000000000000      0.00000000000000     -0.09144593844003
|  8>   Br  0.00000000000000      0.00000000000000      2.09144593844003
|  9> *
| 10> 
| 11> %pal
| 12> nprocs 24
| 13> end
| 14> 
| 15> 
| 16>                          ****END OF INPUT****
================================================================================

                       ****************************
                       * Single Point Calculation *
                       ****************************

---------------------------------
CARTESIAN COORDINATES (ANGSTROEM)
---------------------------------
  Ni     0.000000    0.000000   -0.091446
  Br     0.000000    0.000000    2.091446

----------------------------
CARTESIAN COORDINATES (A.U.)
----------------------------
  NO LB      ZA    FRAG     MASS         X           Y           Z
   0 Ni   28.0000    0    58.700    0.000000    0.000000   -0.172808
   1 Br   35.0000    0    79.900    0.000000    0.000000    3.952260

--------------------------------
INTERNAL COORDINATES (ANGSTROEM)
--------------------------------
 Ni     0   0   0     0.000000000000     0.00000000     0.00000000
 Br     1   0   0     2.182891876880     0.00000000     0.00000000

---------------------------
INTERNAL COORDINATES (A.U.)
---------------------------
 Ni     0   0   0     0.000000000000     0.00000000     0.00000000
 Br     1   0   0     4.125067827265     0.00000000     0.00000000

---------------------
BASIS SET INFORMATION
---------------------
There are 2 groups of distinct atoms

 Group   1 Type Ni  : 116s77p23d3f2g contracted to 8s7p5d3f2g pattern {19191919191911/151515151511/77711/111/11}
 Group   2 Type Br  : 75s36p10d2f contracted to 7s6p4d2f pattern {18181818111/111111111/7111/11}

Atom   0Ni   basis set group =>   1
Atom   1Br   basis set group =>   2
---------------------------------
AUXILIARY/J BASIS SET INFORMATION
---------------------------------
There are 2 groups of distinct atoms

 Group   1 Type Ni  : 19s5p5d3f3g contracted to 8s5p5d2f3g pattern {121111111/11111/11111/21/111}
 Group   2 Type Br  : 19s5p5d3f1g contracted to 8s4p3d2f1g pattern {121111111/2111/311/21/1}

Atom   0Ni   basis set group =>   1
Atom   1Br   basis set group =>   2


           ************************************************************
           *        Program running with 24 parallel MPI-processes    *
           *              working on a common directory               *
           ************************************************************
------------------------------------------------------------------------------
                           ORCA GTO INTEGRAL CALCULATION
                           -- RI-GTO INTEGRALS CHOSEN --
------------------------------------------------------------------------------

                         BASIS SET STATISTICS AND STARTUP INFO

Gaussian basis set:
 # of primitive gaussian shells          ...  344
 # of primitive gaussian functions       ...  748
 # of contracted shells                  ...   44
 # of contracted basis functions         ...  152
 Highest angular momentum                ...    4
 Maximum contraction depth               ...   19
Auxiliary gaussian basis set:
 # of primitive gaussian shells          ...   68
 # of primitive gaussian functions       ...  196
 # of contracted shells                  ...   41
 # of contracted aux-basis functions     ...  147
 Highest angular momentum                ...    4
 Maximum contraction depth               ...   12
Ratio of auxiliary to basis functions    ...  0.97
Integral package used                  ... LIBINT
 One Electron integrals                  ... done
 Ordering auxiliary basis shells         ... done
 Integral threshhold             Thresh  ...  1.000e-10
 Primitive cut-off               TCut    ...  1.000e-11
 Pre-screening matrix                    ... done
 Shell pair data                         ... 
 Ordering of the shell pairs             ... done (   0.000 sec) 990 of 990 pairs
 Determination of significant pairs      ... done (   0.000 sec)
 Creation of shell pair data             ... done (   0.002 sec)
 Storage of shell pair data              ... done (   0.350 sec)
 Shell pair data done in (   0.352 sec)
 Computing two index integrals           ... done
 Cholesky decomposition of the V-matrix  ... done


Timings:
 Total evaluation time                   ...   4.641 sec (  0.077 min)
 One electron matrix time                ...   0.057 sec (  0.001 min) =  1.2%
 Schwartz matrix evaluation time         ...   4.201 sec (  0.070 min) = 90.5%
 Two index repulsion integral time       ...   0.001 sec (  0.000 min) =  0.0%
 Cholesky decomposition of V             ...   0.001 sec (  0.000 min) =  0.0%
 Three index repulsion integral time     ...   0.000 sec (  0.000 min) =  0.0%



           ************************************************************
           *        Program running with 24 parallel MPI-processes    *
           *              working on a common directory               *
           ************************************************************
-------------------------------------------------------------------------------
                                 ORCA SCF
-------------------------------------------------------------------------------

------------
SCF SETTINGS
------------
Hamiltonian:
 Density Functional     Method          .... DFT(GTOs)
 Exchange Functional    Exchange        .... TPSS
 Correlation Functional Correlation     .... TPSS
 LDA part of GGA corr.  LDAOpt          .... PW91-LDA
 Gradients option       PostSCFGGA      .... off
   Density functional embedding theory  .... OFF
   NL short-range parameter             ....  5.000000
 RI-approximation to the Coulomb term is turned on
   Number of auxiliary basis functions  .... 147


General Settings:
 Integral files         IntName         .... 46_NiBr
 Hartree-Fock type      HFTyp           .... UHF
 Total Charge           Charge          ....    0
 Multiplicity           Mult            ....    2
 Number of Electrons    NEL             ....   63
 Basis Dimension        Dim             ....  152
 Nuclear Repulsion      ENuc            ....    237.5718511882 Eh

Convergence Acceleration:
 DIIS                   CNVDIIS         .... on
   Start iteration      DIISMaxIt       ....    12
   Startup error        DIISStart       ....  0.200000
   # of expansion vecs  DIISMaxEq       ....     5
   Bias factor          DIISBfac        ....   1.050
   Max. coefficient     DIISMaxC        ....  10.000
 Newton-Raphson         CNVNR           .... off
 SOSCF                  CNVSOSCF        .... off
 Level Shifting         CNVShift        .... on
   Level shift para.    LevelShift      ....    0.2500
   Turn off err/grad.   ShiftErr        ....    0.0010
 Zerner damping         CNVZerner       .... off
 Static damping         CNVDamp         .... on
   Fraction old density DampFac         ....    0.7000
   Max. Damping (<1)    DampMax         ....    0.9800
   Min. Damping (>=0)   DampMin         ....    0.0000
   Turn off err/grad.   DampErr         ....    0.1000
 Fernandez-Rico         CNVRico         .... off

SCF Procedure:
 Maximum # iterations   MaxIter         ....   125
 SCF integral mode      SCFMode         .... Direct
   Integral package                     .... LIBINT
 Reset frequency        DirectResetFreq ....    20
 Integral Threshold     Thresh          ....  1.000e-10 Eh
 Primitive CutOff       TCut            ....  1.000e-11 Eh

Convergence Tolerance:
 Convergence Check Mode ConvCheckMode   .... Total+1el-Energy
 Convergence forced     ConvForced      .... 0
 Energy Change          TolE            ....  1.000e-06 Eh
 1-El. energy change                    ....  1.000e-03 Eh
 DIIS Error             TolErr          ....  1.000e-06


Diagonalization of the overlap matrix:
Smallest eigenvalue                        ... 1.507e-04
Time for diagonalization                   ...    0.005 sec
Threshold for overlap eigenvalues          ... 1.000e-08
Number of eigenvalues below threshold      ... 0
Time for construction of square roots      ...    0.003 sec
Total time needed                          ...    0.008 sec

-------------------
DFT GRID GENERATION
-------------------

General Integration Accuracy     IntAcc      ...  4.670
Radial Grid Type                 RadialGrid  ... Gauss-Chebyshev
Angular Grid (max. acc.)         AngularGrid ... Lebedev-302
Angular grid pruning method      GridPruning ... 3 (G Style)
Weight generation scheme         WeightScheme... Becke
Basis function cutoff            BFCut       ...    1.0000e-10
Integration weight cutoff        WCut        ...    1.0000e-14
Grids for H and He will be reduced by one unit

# of grid points (after initial pruning)     ...  19280 (   0.0 sec)
# of grid points (after weights+screening)   ...  19253 (   0.0 sec)
nearest neighbour list constructed           ...    0.0 sec
Grid point re-assignment to atoms done       ...    0.0 sec
Grid point division into batches done        ...    0.1 sec
Reduced shell lists constructed in    0.1 sec

Total number of grid points                  ...    19253
Total number of batches                      ...      302
Average number of points per batch           ...       63
Average number of grid points per atom       ...     9626
Average number of shells per batch           ...    16.36 (37.18%)
Average number of basis functions per batch  ...    40.36 (26.55%)
Average number of large shells per batch     ...     9.71 (59.39%)
Average number of large basis fcns per batch ...    23.57 (58.41%)
Maximum spatial batch extension              ...  22.45, 22.17, 16.62 au
Average spatial batch extension              ...   0.77,  0.77,  0.63 au

Time for grid setup =    0.206 sec

------------------------------
INITIAL GUESS: MODEL POTENTIAL
------------------------------
Loading Hartree-Fock densities                     ... done
Calculating cut-offs                               ... done
Setting up the integral package                    ... done
Initializing the effective Hamiltonian             ... done
Starting the Coulomb interaction                   ... done (   0.0 sec)
Reading the grid                                   ... done
Mapping shells                                     ... done
Starting the XC term evaluation                    ... done (   0.0 sec)
  promolecular density results
     # of electrons  =     63.000019529
     EX              =   -150.822394439
     EC              =     -2.994433070
     EX+EC           =   -153.816827509
Transforming the Hamiltonian                       ... done (   0.0 sec)
Diagonalizing the Hamiltonian                      ... done (   0.0 sec)
Back transforming the eigenvectors                 ... done (   0.0 sec)
Now organizing SCF variables                       ... done
                      ------------------
                      INITIAL GUESS DONE (   0.3 sec)
                      ------------------
--------------
SCF ITERATIONS
--------------
ITER       Energy         Delta-E        Max-DP      RMS-DP      [F,P]     Damp
               ***  Starting incremental Fock matrix formation  ***
  0  -4082.3547131346   0.000000000000 0.15920466  0.00193520  0.4266770 0.7000
  1  -4082.3359260489   0.018787085645 0.03040026  0.00061735  0.2730066 0.7000
                               ***Turning on DIIS***
  2  -4082.4152559987  -0.079329949811 0.08208774  0.00119411  0.0500674 0.0000
  3  -4082.4359496879  -0.020693689199 0.02058642  0.00017816  0.3221080 0.7000
  4  -4082.4596304738  -0.023680785901 0.03048114  0.00022244  0.2757038 0.7000
  5  -4082.4828686338  -0.023238159928 0.03348217  0.00022787  0.2305806 0.7000
  6  -4082.5019229746  -0.019054340864 0.03252730  0.00021554  0.1890362 0.7000
  7  -4082.5166796824  -0.014756707762 0.03368211  0.00025447  0.1502074 0.7000
  8  -4082.5315115373  -0.014831854869 0.10207648  0.00072352  0.0850644 0.0000
  9  -4082.5435613167  -0.012049779442 0.00925007  0.00011828  0.0587151 0.0000
 10  -4082.5456937614  -0.002132444696 0.00464325  0.00008181  0.0306619 0.0000
 11  -4082.5466103086  -0.000916547169 0.00421217  0.00005956  0.0177118 0.0000
 12  -4082.5469759911  -0.000365682536 0.00337490  0.00004265  0.0073209 0.0000
 13  -4082.5470847249  -0.000108733772 0.00198125  0.00002706  0.0023407 0.0000
 14  -4082.5471139163  -0.000029191396 0.00134709  0.00001944  0.0011467 0.0000
 15  -4082.5471327531  -0.000018836809 0.00511594  0.00007580  0.0008542 0.0000
 16  -4082.5471594638  -0.000026710707 0.00019113  0.00000352  0.0019142 0.0000
 17  -4082.5471625714  -0.000003107610 0.00027010  0.00000373  0.0012970 0.0000
 18  -4082.5471647525  -0.000002181067 0.00171671  0.00002208  0.0006553 0.0000
 19  -4082.5471691197  -0.000004367218 0.00058770  0.00000683  0.0002781 0.0000
               *** Restarting incremental Fock matrix formation ***
                                   *** Resetting DIIS ***
 20  -4082.5471654286   0.000003691105 0.00172066  0.00002062  0.0005941 0.0000
 21  -4082.5471626493   0.000002779246 0.00016542  0.00000310  0.0020455 0.0000
 22  -4082.5471647482  -0.000002098821 0.00066839  0.00000793  0.0006690 0.0000
 23  -4082.5471657659  -0.000001017783 0.00021427  0.00000273  0.0005402 0.0000
 24  -4082.5471658523  -0.000000086360 0.00010446  0.00000163  0.0001618 0.0000
                 **** Energy Check signals convergence ****

               *****************************************************
               *                     SUCCESS                       *
               *           SCF CONVERGED AFTER  25 CYCLES          *
               *****************************************************


----------------
TOTAL SCF ENERGY
----------------

Total Energy       :        -4082.54716617 Eh         -111091.75619 eV

Components:
Nuclear Repulsion  :          237.57185119 Eh            6464.65873 eV
Electronic Energy  :        -4320.11901736 Eh         -117556.41491 eV
One Electron Energy:        -6153.85106195 Eh         -167454.80063 eV
Two Electron Energy:         1833.73204459 Eh           49898.38572 eV

Virial components:
Potential Energy   :        -8158.98487403 Eh         -222017.26556 eV
Kinetic Energy     :         4076.43770786 Eh          110925.50937 eV
Virial Ratio       :            2.00149872


DFT components:
N(Alpha)           :       32.000005405333 electrons
N(Beta)            :       31.000004932387 electrons
N(Total)           :       63.000010337720 electrons
E(X)               :     -151.458102101770 Eh       
E(C)               :       -3.010773159309 Eh       
E(XC)              :     -154.468875261078 Eh       
DFET-embed. en.    :        0.000000000000 Eh       

---------------
SCF CONVERGENCE
---------------

  Last Energy change         ...   -3.1676e-07  Tolerance :   1.0000e-06
  Last MAX-Density change    ...    7.6981e-05  Tolerance :   1.0000e-05
  Last RMS-Density change    ...    1.1596e-06  Tolerance :   1.0000e-06
  Last DIIS Error            ...    1.4546e-04  Tolerance :   1.0000e-06

             **** THE GBW FILE WAS UPDATED (46_NiBr.gbw) ****
             **** DENSITY FILE WAS UPDATED (46_NiBr.scfp) ****
             **** ENERGY FILE WAS UPDATED (46_NiBr.en.tmp) ****
----------------------
UHF SPIN CONTAMINATION
----------------------

Warning: in a DFT calculation there is little theoretical justification to 
         calculate <S**2> as in Hartree-Fock theory. We will do it anyways
         but you should keep in mind that the values have only limited relevance

Expectation value of <S**2>     :     0.777278
Ideal value S*(S+1) for S=0.5   :     0.750000
Deviation                       :     0.027278

             **** THE GBW FILE WAS UPDATED (46_NiBr.gbw) ****
             **** DENSITY FILE WAS UPDATED (46_NiBr.scfp) ****
----------------
ORBITAL ENERGIES
----------------
                 SPIN UP ORBITALS
  NO   OCC          E(Eh)            E(eV) 
   0   1.0000    -481.712992    -13108.0769 
   1   1.0000    -298.937321     -8134.4981 
   2   1.0000     -61.930046     -1685.2022 
   3   1.0000     -55.762959     -1517.3873 
   4   1.0000     -55.762137     -1517.3649 
   5   1.0000     -55.761355     -1517.3436 
   6   1.0000     -35.343477      -961.7449 
   7   1.0000     -30.789259      -837.8183 
   8   1.0000     -30.788539      -837.7987 
   9   1.0000     -30.763243      -837.1104 
  10   1.0000      -8.455841      -230.0951 
  11   1.0000      -6.295076      -171.2977 
  12   1.0000      -6.291986      -171.2136 
  13   1.0000      -6.289404      -171.1434 
  14   1.0000      -3.882717      -105.6541 
  15   1.0000      -2.517216       -68.4969 
  16   1.0000      -2.505542       -68.1793 
  17   1.0000      -2.463696       -67.0406 
  18   1.0000      -2.463175       -67.0264 
  19   1.0000      -2.461275       -66.9747 
  20   1.0000      -2.458795       -66.9072 
  21   1.0000      -2.458526       -66.8999 
  22   1.0000      -2.450936       -66.6934 
  23   1.0000      -0.685280       -18.6474 
  24   1.0000      -0.315521        -8.5857 
  25   1.0000      -0.293994        -8.0000 
  26   1.0000      -0.265495        -7.2245 
  27   1.0000      -0.236388        -6.4325 
  28   1.0000      -0.221125        -6.0171 
  29   1.0000      -0.207891        -5.6570 
  30   1.0000      -0.201343        -5.4788 
  31   1.0000      -0.199890        -5.4393 
  32   0.0000      -0.129745        -3.5305 
  33   0.0000      -0.021544        -0.5862 
  34   0.0000      -0.015985        -0.4350 
  35   0.0000       0.005547         0.1509 
  36   0.0000       0.008630         0.2348 
  37   0.0000       0.033044         0.8992 
  38   0.0000       0.035614         0.9691 
  39   0.0000       0.054337         1.4786 
  40   0.0000       0.072282         1.9669 
  41   0.0000       0.072607         1.9757 
  42   0.0000       0.074340         2.0229 
  43   0.0000       0.076086         2.0704 
  44   0.0000       0.077248         2.1020 
  45   0.0000       0.104664         2.8481 
  46   0.0000       0.106664         2.9025 
  47   0.0000       0.112711         3.0670 
  48   0.0000       0.127644         3.4734 
  49   0.0000       0.188451         5.1280 
  50   0.0000       0.188678         5.1342 
  51   0.0000       0.194556         5.2941 
  52   0.0000       0.198563         5.4032 
  53   0.0000       0.198579         5.4036 
  54   0.0000       0.215035         5.8514 
  55   0.0000       0.268121         7.2959 
  56   0.0000       0.274152         7.4601 
  57   0.0000       0.334161         9.0930 
  58   0.0000       0.347600         9.4587 
  59   0.0000       0.347967         9.4687 
  60   0.0000       0.385717        10.4959 
  61   0.0000       0.391682        10.6582 
  62   0.0000       0.444325        12.0907 
  63   0.0000       0.448747        12.2110 
  64   0.0000       0.482561        13.1311 
  65   0.0000       0.540248        14.7009 
  66   0.0000       0.565562        15.3897 
  67   0.0000       0.612221        16.6594 
  68   0.0000       0.612229        16.6596 
  69   0.0000       0.651513        17.7286 
  70   0.0000       0.653870        17.7927 
  71   0.0000       0.656122        17.8540 
  72   0.0000       0.767700        20.8902 
  73   0.0000       0.767700        20.8902 
  74   0.0000       0.782316        21.2879 
  75   0.0000       0.782358        21.2890 
  76   0.0000       0.851319        23.1656 
  77   0.0000       0.851803        23.1787 
  78   0.0000       0.866532        23.5795 
  79   0.0000       0.948731        25.8163 
  80   0.0000       0.959612        26.1124 
  81   0.0000       1.106216        30.1017 
  82   0.0000       1.241725        33.7890 
  83   0.0000       1.241727        33.7891 
  84   0.0000       1.262694        34.3597 
  85   0.0000       1.352121        36.7931 
  86   0.0000       1.352332        36.7988 
  87   0.0000       1.378983        37.5240 
  88   0.0000       1.379200        37.5299 
  89   0.0000       1.396286        37.9949 
  90   0.0000       1.419100        38.6157 
  91   0.0000       1.491757        40.5928 
  92   0.0000       1.587977        43.2111 
  93   0.0000       1.602037        43.5937 
  94   0.0000       1.741175        47.3798 
  95   0.0000       1.858637        50.5761 
  96   0.0000       1.864735        50.7420 
  97   0.0000       1.971341        53.6429 
  98   0.0000       1.971484        53.6468 
  99   0.0000       2.008391        54.6511 
 100   0.0000       2.008393        54.6512 
 101   0.0000       2.024276        55.0833 
 102   0.0000       2.036469        55.4151 
 103   0.0000       2.036801        55.4242 
 104   0.0000       2.074807        56.4584 
 105   0.0000       2.079089        56.5749 
 106   0.0000       2.152497        58.5724 
 107   0.0000       2.159822        58.7717 
 108   0.0000       2.218470        60.3676 
 109   0.0000       2.638751        71.8041 
 110   0.0000       3.526192        95.9526 
 111   0.0000       3.799277       103.3836 
 112   0.0000       3.801163       103.4349 
 113   0.0000       3.826971       104.1372 
 114   0.0000       3.829428       104.2040 
 115   0.0000       3.837418       104.4214 
 116   0.0000       3.873730       105.4096 
 117   0.0000       3.942906       107.2919 
 118   0.0000       3.978526       108.2612 
 119   0.0000       3.978979       108.2735 
 120   0.0000       4.074203       110.8647 
 121   0.0000       4.341739       118.1447 
 122   0.0000       4.974503       135.3631 
 123   0.0000       4.974904       135.3740 
 124   0.0000       4.976249       135.4106 
 125   0.0000       4.977661       135.4490 
 126   0.0000       4.996354       135.9577 
 127   0.0000       4.996461       135.9606 
 128   0.0000       5.016393       136.5030 
 129   0.0000       5.045351       137.2910 
 130   0.0000       5.115221       139.1922 
 131   0.0000       5.551530       151.0648 
 132   0.0000       5.551763       151.0712 
 133   0.0000       5.632778       153.2757 
 134   0.0000       5.682042       154.6162 
 135   0.0000       6.374972       173.4718 
 136   0.0000      12.287956       334.3723 
 137   0.0000      12.294644       334.5543 
 138   0.0000      12.305299       334.8442 
 139   0.0000      12.305314       334.8446 
 140   0.0000      12.343642       335.8876 
 141   0.0000      12.401800       337.4701 
 142   0.0000      12.426735       338.1487 
 143   0.0000      13.918479       378.7411 
 144   0.0000      13.921265       378.8169 
 145   0.0000      13.928427       379.0118 
 146   0.0000      13.928643       379.0177 
 147   0.0000      13.942706       379.4003 
 148   0.0000      13.961956       379.9241 
 149   0.0000      13.962008       379.9256 
 150   0.0000      13.985127       380.5546 
 151   0.0000      14.016595       381.4109 

                 SPIN DOWN ORBITALS
  NO   OCC          E(Eh)            E(eV) 
   0   1.0000    -481.712757    -13108.0705 
   1   1.0000    -298.937140     -8134.4931 
   2   1.0000     -61.929970     -1685.2002 
   3   1.0000     -55.762897     -1517.3856 
   4   1.0000     -55.761703     -1517.3531 
   5   1.0000     -55.761269     -1517.3413 
   6   1.0000     -35.325807      -961.2641 
   7   1.0000     -30.771270      -837.3288 
   8   1.0000     -30.769639      -837.2845 
   9   1.0000     -30.757181      -836.9455 
  10   1.0000      -8.455530      -230.0867 
  11   1.0000      -6.294966      -171.2947 
  12   1.0000      -6.291210      -171.1925 
  13   1.0000      -6.289230      -171.1386 
  14   1.0000      -3.840075      -104.4938 
  15   1.0000      -2.465108       -67.0790 
  16   1.0000      -2.462600       -67.0107 
  17   1.0000      -2.461179       -66.9721 
  18   1.0000      -2.459589       -66.9288 
  19   1.0000      -2.458121       -66.8889 
  20   1.0000      -2.457906       -66.8830 
  21   1.0000      -2.452883       -66.7463 
  22   1.0000      -2.432924       -66.2032 
  23   1.0000      -0.682116       -18.5613 
  24   1.0000      -0.311780        -8.4840 
  25   1.0000      -0.260804        -7.0969 
  26   1.0000      -0.259061        -7.0494 
  27   1.0000      -0.215081        -5.8527 
  28   1.0000      -0.186771        -5.0823 
  29   1.0000      -0.183604        -4.9961 
  30   1.0000      -0.174847        -4.7578 
  31   0.0000      -0.160873        -4.3776 
  32   0.0000      -0.122498        -3.3333 
  33   0.0000      -0.020268        -0.5515 
  34   0.0000      -0.018551        -0.5048 
  35   0.0000       0.005450         0.1483 
  36   0.0000       0.007684         0.2091 
  37   0.0000       0.033328         0.9069 
  38   0.0000       0.034325         0.9340 
  39   0.0000       0.053777         1.4633 
  40   0.0000       0.071235         1.9384 
  41   0.0000       0.071344         1.9414 
  42   0.0000       0.074708         2.0329 
  43   0.0000       0.076651         2.0858 
  44   0.0000       0.077045         2.0965 
  45   0.0000       0.104136         2.8337 
  46   0.0000       0.106364         2.8943 
  47   0.0000       0.113750         3.0953 
  48   0.0000       0.127268         3.4631 
  49   0.0000       0.188542         5.1305 
  50   0.0000       0.191379         5.2077 
  51   0.0000       0.192365         5.2345 
  52   0.0000       0.200235         5.4487 
  53   0.0000       0.200325         5.4511 
  54   0.0000       0.218405         5.9431 
  55   0.0000       0.272815         7.4237 
  56   0.0000       0.274523         7.4702 
  57   0.0000       0.334783         9.1099 
  58   0.0000       0.346860         9.4385 
  59   0.0000       0.347615         9.4591 
  60   0.0000       0.390679        10.6309 
  61   0.0000       0.393057        10.6956 
  62   0.0000       0.448350        12.2002 
  63   0.0000       0.449323        12.2267 
  64   0.0000       0.484847        13.1934 
  65   0.0000       0.543519        14.7899 
  66   0.0000       0.567240        15.4354 
  67   0.0000       0.615432        16.7468 
  68   0.0000       0.615490        16.7483 
  69   0.0000       0.653686        17.7877 
  70   0.0000       0.655515        17.8375 
  71   0.0000       0.660801        17.9813 
  72   0.0000       0.770876        20.9766 
  73   0.0000       0.770877        20.9766 
  74   0.0000       0.784540        21.3484 
  75   0.0000       0.784607        21.3503 
  76   0.0000       0.858189        23.3525 
  77   0.0000       0.866479        23.5781 
  78   0.0000       0.867227        23.5984 
  79   0.0000       0.957261        26.0484 
  80   0.0000       0.959169        26.1003 
  81   0.0000       1.112952        30.2850 
  82   0.0000       1.239666        33.7330 
  83   0.0000       1.239765        33.7357 
  84   0.0000       1.266436        34.4615 
  85   0.0000       1.364865        37.1399 
  86   0.0000       1.366668        37.1889 
  87   0.0000       1.386516        37.7290 
  88   0.0000       1.387869        37.7658 
  89   0.0000       1.423293        38.7298 
  90   0.0000       1.443278        39.2736 
  91   0.0000       1.500113        40.8201 
  92   0.0000       1.603736        43.6399 
  93   0.0000       1.607082        43.7309 
  94   0.0000       1.745704        47.5030 
  95   0.0000       1.864303        50.7303 
  96   0.0000       1.865855        50.7725 
  97   0.0000       1.974914        53.7401 
  98   0.0000       1.975074        53.7445 
  99   0.0000       2.012969        54.7757 
 100   0.0000       2.012974        54.7758 
 101   0.0000       2.026924        55.1554 
 102   0.0000       2.039496        55.4975 
 103   0.0000       2.039564        55.4993 
 104   0.0000       2.078268        56.5526 
 105   0.0000       2.079735        56.5925 
 106   0.0000       2.161018        58.8043 
 107   0.0000       2.161051        58.8052 
 108   0.0000       2.221440        60.4484 
 109   0.0000       2.650678        72.1286 
 110   0.0000       3.554003        96.7093 
 111   0.0000       3.813334       103.7661 
 112   0.0000       3.813368       103.7670 
 113   0.0000       3.867410       105.2376 
 114   0.0000       3.869076       105.2829 
 115   0.0000       3.870847       105.3311 
 116   0.0000       3.883558       105.6770 
 117   0.0000       3.987219       108.4978 
 118   0.0000       3.990277       108.5810 
 119   0.0000       3.994197       108.6876 
 120   0.0000       4.086734       111.2057 
 121   0.0000       4.365796       118.7993 
 122   0.0000       4.995006       135.9210 
 123   0.0000       4.996399       135.9589 
 124   0.0000       5.004798       136.1875 
 125   0.0000       5.005105       136.1958 
 126   0.0000       5.015289       136.4729 
 127   0.0000       5.018243       136.5533 
 128   0.0000       5.051149       137.4487 
 129   0.0000       5.057352       137.6175 
 130   0.0000       5.132155       139.6530 
 131   0.0000       5.573189       151.6542 
 132   0.0000       5.574336       151.6854 
 133   0.0000       5.702634       155.1766 
 134   0.0000       5.708553       155.3376 
 135   0.0000       6.401503       174.1937 
 136   0.0000      12.334604       335.6416 
 137   0.0000      12.334653       335.6430 
 138   0.0000      12.367054       336.5246 
 139   0.0000      12.368960       336.5765 
 140   0.0000      12.430076       338.2396 
 141   0.0000      12.431921       338.2898 
 142   0.0000      12.463572       339.1510 
 143   0.0000      13.977126       380.3369 
 144   0.0000      13.977792       380.3551 
 145   0.0000      13.979866       380.4115 
 146   0.0000      13.980844       380.4381 
 147   0.0000      13.992736       380.7617 
 148   0.0000      13.992866       380.7653 
 149   0.0000      13.999632       380.9494 
 150   0.0000      14.012887       381.3100 
 151   0.0000      14.050628       382.3370 

                    ********************************
                    * MULLIKEN POPULATION ANALYSIS *
                    ********************************

--------------------------------------------
MULLIKEN ATOMIC CHARGES AND SPIN POPULATIONS
--------------------------------------------
   0 Ni:    0.418189    0.902634
   1 Br:   -0.418189    0.097366
Sum of atomic charges         :   -0.0000000
Sum of atomic spin populations:    1.0000000

-----------------------------------------------------
MULLIKEN REDUCED ORBITAL CHARGES AND SPIN POPULATIONS
-----------------------------------------------------
CHARGE
  0 Nis       :     6.490836  s :     6.490836
      pz      :     4.052990  p :    12.146161
      px      :     4.048963
      py      :     4.044208
      dz2     :     1.859582  d :     8.936940
      dxz     :     1.843912
      dyz     :     1.255872
      dx2y2   :     1.989481
      dxy     :     1.988093
      f0      :     0.002632  f :     0.007623
      f+1     :     0.002465
      f-1     :     0.002397
      f+2     :     0.000049
      f-2     :     0.000052
      f+3     :     0.000013
      f-3     :     0.000015
      g0      :     0.000098  g :     0.000251
      g+1     :     0.000048
      g-1     :     0.000039
      g+2     :     0.000014
      g-2     :     0.000015
      g+3     :     0.000009
      g-3     :     0.000009
      g+4     :     0.000009
      g-4     :     0.000009
  1 Brs       :     8.064794  s :     8.064794
      pz      :     5.542016  p :    17.319444
      px      :     5.930346
      py      :     5.847081
      dz2     :     2.004655  d :    10.027649
      dxz     :     2.011463
      dyz     :     2.008822
      dx2y2   :     2.001354
      dxy     :     2.001354
      f0      :     0.000283  f :     0.006302
      f+1     :     0.002349
      f-1     :     0.001976
      f+2     :     0.000841
      f-2     :     0.000841
      f+3     :     0.000006
      f-3     :     0.000006

SPIN
  0 Nis       :    -0.028465  s :    -0.028465
      pz      :    -0.000251  p :     0.000605
      px      :    -0.002300
      py      :     0.003156
      dz2     :     0.035908  d :     0.930012
      dxz     :     0.141760
      dyz     :     0.734252
      dx2y2   :     0.008353
      dxy     :     0.009739
      f0      :     0.000134  f :     0.000457
      f+1     :     0.000101
      f-1     :     0.000188
      f+2     :     0.000011
      f-2     :     0.000011
      f+3     :     0.000007
      f-3     :     0.000006
      g0      :    -0.000028  g :     0.000024
      g+1     :     0.000001
      g-1     :     0.000005
      g+2     :     0.000011
      g-2     :     0.000011
      g+3     :     0.000009
      g-3     :     0.000008
      g+4     :     0.000004
      g-4     :     0.000004
  1 Brs       :    -0.010816  s :    -0.010816
      pz      :    -0.013826  p :     0.108276
      px      :     0.021079
      py      :     0.101023
      dz2     :    -0.000547  d :    -0.000182
      dxz     :    -0.000227
      dyz     :     0.000804
      dx2y2   :    -0.000107
      dxy     :    -0.000106
      f0      :    -0.000052  f :     0.000089
      f+1     :    -0.000009
      f-1     :     0.000127
      f+2     :     0.000005
      f-2     :     0.000005
      f+3     :     0.000006
      f-3     :     0.000006


                     *******************************
                     * LOEWDIN POPULATION ANALYSIS *
                     *******************************

-------------------------------------------
LOEWDIN ATOMIC CHARGES AND SPIN POPULATIONS
-------------------------------------------
   0 Ni:   -0.083470    0.887170
   1 Br:    0.083470    0.112830

----------------------------------------------------
LOEWDIN REDUCED ORBITAL CHARGES AND SPIN POPULATIONS
----------------------------------------------------
CHARGE
  0 Nis       :     6.468163  s :     6.468163
      pz      :     4.220880  p :    12.402455
      px      :     4.098412
      py      :     4.083163
      dz2     :     1.979649  d :     9.161508
      dxz     :     1.894312
      dyz     :     1.322178
      dx2y2   :     1.983377
      dxy     :     1.981992
      f0      :     0.023111  f :     0.050706
      f+1     :     0.014302
      f-1     :     0.013049
      f+2     :     0.000106
      f-2     :     0.000109
      f+3     :     0.000013
      f-3     :     0.000015
      g0      :     0.000306  g :     0.000638
      g+1     :     0.000141
      g-1     :     0.000129
      g+2     :     0.000013
      g-2     :     0.000013
      g+3     :     0.000009
      g-3     :     0.000009
      g+4     :     0.000009
      g-4     :     0.000009
  1 Brs       :     7.627059  s :     7.627059
      pz      :     5.556354  p :    17.023997
      px      :     5.769535
      py      :     5.698107
      dz2     :     2.093900  d :    10.160360
      dxz     :     2.035039
      dyz     :     2.023742
      dx2y2   :     2.003839
      dxy     :     2.003839
      f0      :     0.048464  f :     0.105113
      f+1     :     0.027804
      f-1     :     0.020027
      f+2     :     0.004404
      f-2     :     0.004402
      f+3     :     0.000006
      f-3     :     0.000006

SPIN
  0 Nis       :    -0.038147  s :    -0.038147
      pz      :    -0.001741  p :     0.009183
      px      :    -0.001385
      py      :     0.012309
      dz2     :     0.033617  d :     0.914261
      dxz     :     0.140807
      dyz     :     0.720955
      dx2y2   :     0.008750
      dxy     :     0.010133
      f0      :    -0.000012  f :     0.001849
      f+1     :     0.000341
      f-1     :     0.001483
      f+2     :     0.000012
      f-2     :     0.000012
      f+3     :     0.000007
      f-3     :     0.000005
      g0      :    -0.000032  g :     0.000024
      g+1     :     0.000002
      g-1     :     0.000011
      g+2     :     0.000009
      g-2     :     0.000009
      g+3     :     0.000009
      g-3     :     0.000008
      g+4     :     0.000004
      g-4     :     0.000004
  1 Brs       :    -0.002919  s :    -0.002919
      pz      :    -0.008382  p :     0.098668
      px      :     0.018466
      py      :     0.088585
      dz2     :    -0.000420  d :     0.008061
      dxz     :     0.000836
      dyz     :     0.008296
      dx2y2   :    -0.000326
      dxy     :    -0.000325
      f0      :     0.000094  f :     0.009020
      f+1     :     0.001338
      f-1     :     0.007916
      f+2     :    -0.000171
      f-2     :    -0.000169
      f+3     :     0.000006
      f-3     :     0.000006


                      *****************************
                      * MAYER POPULATION ANALYSIS *
                      *****************************

  NA   - Mulliken gross atomic population
  ZA   - Total nuclear charge
  QA   - Mulliken gross atomic charge
  VA   - Mayer's total valence
  BVA  - Mayer's bonded valence
  FA   - Mayer's free valence

  ATOM       NA         ZA         QA         VA         BVA        FA
  0 Ni    27.5818    28.0000     0.4182     2.1104     1.2769     0.8335
  1 Br    35.4182    35.0000    -0.4182     1.2937     1.2769     0.0167

  Mayer bond orders larger than 0.100000
B(  0-Ni,  1-Br) :   1.2769 

-------
TIMINGS
-------

Total SCF time: 0 days 0 hours 0 min 6 sec 

Total time                  ....       6.699 sec
Sum of individual times     ....       6.495 sec  ( 97.0%)

Fock matrix formation       ....       5.931 sec  ( 88.5%)
  Split-RI-J                ....       4.394 sec  ( 74.1% of F)
  XC integration            ....       1.297 sec  ( 21.9% of F)
    Basis function eval.    ....       0.228 sec  ( 17.6% of XC)
    Density eval.           ....       0.258 sec  ( 19.9% of XC)
    XC-Functional eval.     ....       0.052 sec  (  4.0% of XC)
    XC-Potential eval.      ....       0.465 sec  ( 35.9% of XC)
Diagonalization             ....       0.141 sec  (  2.1%)
Density matrix formation    ....       0.021 sec  (  0.3%)
Population analysis         ....       0.007 sec  (  0.1%)
Initial guess               ....       0.134 sec  (  2.0%)
Orbital Transformation      ....       0.000 sec  (  0.0%)
Orbital Orthonormalization  ....       0.000 sec  (  0.0%)
DIIS solution               ....       0.055 sec  (  0.8%)
Grid generation             ....       0.206 sec  (  3.1%)


-------------------------------------------------------------------------------
                          DFT DISPERSION CORRECTION                            
                                                                               
                              DFTD3 V3.1  Rev 1                                
                          USING Becke-Johnson damping                          
-------------------------------------------------------------------------------
The TPSS functional is recognized
Active option DFTDOPT                   ...         4   

molecular C6(AA) [au] = 792.281557 


            DFT-D V3
 parameters
 s6 scaling factor         :     1.0000 
 a1 scaling factor         :     0.4535 
 s8 scaling factor         :     1.9435 
 a2 scaling factor         :     4.4752 
 ad hoc parameters k1-k3   :    16.0000     1.3333    -4.0000 

 Edisp/kcal,au: -1.079771306118  -0.001720724922 
 E6   /kcal   :  -0.353551775 
 E8   /kcal   :  -0.726219531 
 % E8         :  67.256791040 

-------------------------   ----------------
Dispersion correction           -0.001720725
-------------------------   ----------------


-------------------------   --------------------
FINAL SINGLE POINT ENERGY     -4082.548886893978
-------------------------   --------------------


                            ***************************************
                            *     ORCA property calculations      *
                            ***************************************

                                    ---------------------
                                    Active property flags
                                    ---------------------
   (+) Dipole Moment


------------------------------------------------------------------------------
                       ORCA ELECTRIC PROPERTIES CALCULATION
------------------------------------------------------------------------------

Dipole Moment Calculation                       ... on
Quadrupole Moment Calculation                   ... off
Polarizability Calculation                      ... off
GBWName                                         ... 46_NiBr.gbw
Electron density file                           ... 46_NiBr.scfp
The origin for moment calculation is the CENTER OF MASS  = ( 0.000000,  0.000000  2.205208)

-------------
DIPOLE MOMENT
-------------
                                X             Y             Z
Electronic contribution:      0.00000      -0.00000       3.82560
Nuclear contribution   :      0.00000       0.00000      -5.43759
                        -----------------------------------------
Total Dipole Moment    :      0.00000      -0.00000      -1.61199
                        -----------------------------------------
Magnitude (a.u.)       :      1.61199
Magnitude (Debye)      :      4.09736



--------------------
Rotational spectrum 
--------------------
 
Rotational constants in cm-1:     0.000000     0.104547     0.104547 
Rotational constants in MHz :     0.000000  3134.234625  3134.234625 

 Dipole components along the rotational axes: 
x,y,z [a.u.] :    -1.611994    -0.000000     0.000000 
x,y,z [Debye]:    -4.097363    -0.000000     0.000000 

 

Timings for individual modules:

Sum of individual times         ...       12.157 sec (=   0.203 min)
GTO integral calculation        ...        5.128 sec (=   0.085 min)  42.2 %
SCF iterations                  ...        7.029 sec (=   0.117 min)  57.8 %
                             ****ORCA TERMINATED NORMALLY****
TOTAL RUN TIME: 0 days 0 hours 0 minutes 12 seconds 800 msec
