
                                 *****************
                                 * O   R   C   A *
                                 *****************

           --- An Ab Initio, DFT and Semiempirical electronic structure package ---

                  #######################################################
                  #                        -***-                        #
                  #          Department of theory and spectroscopy      #
                  #               Directorship: Frank Neese             #
                  #        Max Planck Institute fuer Kohlenforschung    #
                  #                Kaiser Wilhelm Platz 1               #
                  #                 D-45470 Muelheim/Ruhr               #
                  #                      Germany                        #
                  #                                                     #
                  #                  All rights reserved                #
                  #                        -***-                        #
                  #######################################################


                         Program Version 4.2.0 -  RELEASE  -


 With contributions from (in alphabetic order):
   Daniel Aravena         : Magnetic Suceptibility
   Michael Atanasov       : Ab Initio Ligand Field Theory (pilot matlab implementation)
   Alexander A. Auer      : GIAO ZORA, VPT2
   Ute Becker             : Parallelization
   Giovanni Bistoni       : ED, misc. LED, open-shell LED, HFLED
   Martin Brehm           : Molecular dynamics
   Dmytro Bykov           : SCF Hessian
   Vijay G. Chilkuri      : MRCI spin determinant printing, contributions to CSF-ICE
   Dipayan Datta          : RHF DLPNO-CCSD density
   Achintya Kumar Dutta   : EOM-CC, STEOM-CC
   Dmitry Ganyushin       : Spin-Orbit,Spin-Spin,Magnetic field MRCI
   Miquel Garcia          : C-PCM Hessian, Gaussian charge scheme
   Yang Guo               : DLPNO-NEVPT2, CIM, IAO-localization
   Andreas Hansen         : Spin unrestricted coupled pair/coupled cluster methods
   Benjamin Helmich-Paris : CASSCF linear response (MC-RPA)
   Lee Huntington         : MR-EOM, pCC
   Robert Izsak           : Overlap fitted RIJCOSX, COSX-SCS-MP3, EOM
   Christian Kollmar      : KDIIS, OOCD, Brueckner-CCSD(T), CCSD density
   Simone Kossmann        : Meta GGA functionals, TD-DFT gradient, OOMP2, MP2 Hessian
   Martin Krupicka        : AUTO-CI
   Lucas Lang             : DCDCAS
   Dagmar Lenk            : GEPOL surface, SMD
   Dimitrios Liakos       : Extrapolation schemes; Compound Job, initial MDCI parallelization
   Dimitrios Manganas     : Further ROCIS development; embedding schemes
   Dimitrios Pantazis     : SARC Basis sets
   Taras Petrenko         : DFT Hessian,TD-DFT gradient, ASA, ECA, R-Raman, ABS, FL, XAS/XES, NRVS
   Peter Pinski           : DLPNO-MP2, DLPNO-MP2 Gradient
   Christoph Reimann      : Effective Core Potentials
   Marius Retegan         : Local ZFS, SOC
   Christoph Riplinger    : Optimizer, TS searches, QM/MM, DLPNO-CCSD(T), (RO)-DLPNO pert. Triples
   Tobias Risthaus        : Range-separated hybrids, TD-DFT gradient, RPA, STAB
   Michael Roemelt        : Original ROCIS implementation
   Masaaki Saitow         : Open-shell DLPNO-CCSD energy and density
   Barbara Sandhoefer     : DKH picture change effects
   Avijit Sen             : IP-ROCIS
   Kantharuban Sivalingam : CASSCF convergence, NEVPT2, FIC-MRCI
   Bernardo de Souza      : ESD, SOC TD-DFT
   Georgi Stoychev        : AutoAux, RI-MP2 NMR
   Willem Van den Heuvel  : Paramagnetic NMR
   Boris Wezisla          : Elementary symmetry handling
   Frank Wennmohs         : Technical directorship


 We gratefully acknowledge several colleagues who have allowed us to
 interface, adapt or use parts of their codes:
   Stefan Grimme, W. Hujo, H. Kruse,             : VdW corrections, initial TS optimization,
                  C. Bannwarth                     DFT functionals, gCP, sTDA/sTD-DF
   Ed Valeev, F. Pavosevic, A. Kumar             : LibInt (2-el integral package), F12 methods
   Garnet Chan, S. Sharma, J. Yang, R. Olivares  : DMRG
   Ulf Ekstrom                                   : XCFun DFT Library
   Mihaly Kallay                                 : mrcc  (arbitrary order and MRCC methods)
   Andreas Klamt, Michael Diedenhofen            : otool_cosmo (COSMO solvation model)
   Jiri Pittner, Ondrej Demel                    : Mk-CCSD
   Frank Weinhold                                : gennbo (NPA and NBO analysis)
   Christopher J. Cramer and Donald G. Truhlar   : smd solvation model
   Lars Goerigk                                  : TD-DFT with DH, B97 family of functionals
   V. Asgeirsson, H. Jonsson                     : NEB implementation
   FAccTs GmbH                                   : IRC, NEB, NEB-TS, Multilevel, MM, QM/MM, CI optimization
   S Lehtola, MJT Oliveira, MAL Marques          : LibXC Library


 Your calculation uses the libint2 library for the computation of 2-el integrals
 For citations please refer to: http://libint.valeyev.net

 Your ORCA version has been built with support for libXC version: 4.2.3
 For citations please refer to: https://tddft.org/programs/libxc/

 This ORCA versions uses:
   CBLAS   interface :  Fast vector & matrix operations
   LAPACKE interface :  Fast linear algebra routines
   SCALAPACK package :  Parallel linear algebra routines


Your calculation utilizes the atom-pairwise dispersion correction
with the Becke-Johnson damping scheme (D3BJ)
Cite in your paper:
S.Grimme, S.Ehrlich, L.Goerigk, J Comput Chem, (2011), 32, 1456–1465 
S.Grimme, J.Antony, S.Ehrlich and H.Krieg, J.Chem.Phys., 132, (2010), 154104 
   

----- Orbital basis set information -----
Your calculation utilizes the basis: aug-cc-pVTZ 
    H, B-Ne : Obtained from the ccRepo (grant-hill.group.shef.ac.uk/ccrepo) Feb. 2017
              R. A. Kendall, T. H. Dunning, Jr., R. J. Harrison, J. Chem. Phys. 96, 6796 (1992)
         He : Obtained from the ccRepo (grant-hill.group.shef.ac.uk/ccrepo) Feb. 2017
              D. E. Woon, T. H. Dunning, Jr., J. Chem. Phys. 100, 2975 (1994)
  Li-Be, Na : Obtained from the ccRepo (grant-hill.group.shef.ac.uk/ccrepo) Feb. 2017
              B. P. Prascher, D. E. Woon, K. A. Peterson, T. H. Dunning, Jr., A. K. Wilson, Theor. Chem. Acc. 128, 69 (2011)
         Mg : Obtained from the Peterson Research Group Website (tyr0.chem.wsu.edu/~kipeters) Feb. 2017
              B. P. Prascher, D. E. Woon, K. A. Peterson, T. H. Dunning, Jr., A. K. Wilson, Theor. Chem. Acc. 128, 69 (2011)
      Al-Ar : Obtained from the ccRepo (grant-hill.group.shef.ac.uk/ccrepo) Feb. 2017
              D. E. Woon, T. H. Dunning, Jr., J. Chem. Phys. 98, 1358 (1993)
      Sc-Zn : Obtained from the ccRepo (grant-hill.group.shef.ac.uk/ccrepo) Feb. 2017
              N. B. Balabanov, K. A. Peterson, J. Chem. Phys. 123, 064107 (2005)
              N. B. Balabanov, K. A. Peterson, J. Chem. Phys. 125, 074110 (2006)
      Ga-Kr : Obtained from the ccRepo (grant-hill.group.shef.ac.uk/ccrepo) Feb. 2017
              A. K. Wilson, D. E. Woon, K. A. Peterson, T. H. Dunning, Jr., J. Chem. Phys. 110, 7667 (1999)
     Ag, Au : Obtained from the Peterson Research Group Website (tyr0.chem.wsu.edu/~kipeters) Feb. 2017
              K. A. Peterson, C. Puzzarini, Theor. Chem. Acc. 114, 283 (2005)

----- AuxJ basis set information -----
Your calculation utilizes the auxiliary basis: def2/J
   F. Weigend, Phys. Chem. Chem. Phys. 8, 1057 (2006).

================================================================================
                                        WARNINGS
                       Please study these warnings very carefully!
================================================================================


WARNING: your system is open-shell and RHF/RKS was chosen
  ===> : WILL SWITCH to UHF/UKS


INFO   : the flag for use of LIBINT has been found!

================================================================================
                                       INPUT FILE
================================================================================
NAME = 54_CuS.in
|  1> #
|  2> # 54_CuS tpss/aug-cc-pvtz
|  3> #
|  4> ! tpss d3bj aug-cc-pvtz def2/j grid4 nofinalgrid
|  5> 
|  6> *xyz 0 2
|  7>   Cu  0.00000000000000      0.00000000000000     -0.02892798555449
|  8>   S   0.00000000000000      0.00000000000000      2.02892798555449
|  9> *
| 10> 
| 11> %pal
| 12> nprocs 24
| 13> end
| 14> 
| 15> 
| 16>                          ****END OF INPUT****
================================================================================

                       ****************************
                       * Single Point Calculation *
                       ****************************

---------------------------------
CARTESIAN COORDINATES (ANGSTROEM)
---------------------------------
  Cu     0.000000    0.000000   -0.028928
  S      0.000000    0.000000    2.028928

----------------------------
CARTESIAN COORDINATES (A.U.)
----------------------------
  NO LB      ZA    FRAG     MASS         X           Y           Z
   0 Cu   29.0000    0    63.550    0.000000    0.000000   -0.054666
   1 S    16.0000    0    32.060    0.000000    0.000000    3.834118

--------------------------------
INTERNAL COORDINATES (ANGSTROEM)
--------------------------------
 Cu     0   0   0     0.000000000000     0.00000000     0.00000000
 S      1   0   0     2.057855971109     0.00000000     0.00000000

---------------------------
INTERNAL COORDINATES (A.U.)
---------------------------
 Cu     0   0   0     0.000000000000     0.00000000     0.00000000
 S      1   0   0     3.888784208451     0.00000000     0.00000000

---------------------
BASIS SET INFORMATION
---------------------
There are 2 groups of distinct atoms

 Group   1 Type Cu  : 116s77p23d3f2g contracted to 8s7p5d3f2g pattern {19191919191911/151515151511/77711/111/11}
 Group   2 Type S   : 42s17p3d2f contracted to 6s5p3d2f pattern {131313111/77111/111/11}

Atom   0Cu   basis set group =>   1
Atom   1S    basis set group =>   2
---------------------------------
AUXILIARY/J BASIS SET INFORMATION
---------------------------------
There are 2 groups of distinct atoms

 Group   1 Type Cu  : 19s5p5d3f3g contracted to 8s5p4d3f3g pattern {121111111/11111/2111/111/111}
 Group   2 Type S   : 14s5p5d2f1g contracted to 8s4p3d1f1g pattern {71111111/2111/311/2/1}

Atom   0Cu   basis set group =>   1
Atom   1S    basis set group =>   2


           ************************************************************
           *        Program running with 24 parallel MPI-processes    *
           *              working on a common directory               *
           ************************************************************
------------------------------------------------------------------------------
                           ORCA GTO INTEGRAL CALCULATION
                           -- RI-GTO INTEGRALS CHOSEN --
------------------------------------------------------------------------------

                         BASIS SET STATISTICS AND STARTUP INFO

Gaussian basis set:
 # of primitive gaussian shells          ...  285
 # of primitive gaussian functions       ...  623
 # of contracted shells                  ...   41
 # of contracted basis functions         ...  143
 Highest angular momentum                ...    4
 Maximum contraction depth               ...   19
Auxiliary gaussian basis set:
 # of primitive gaussian shells          ...   62
 # of primitive gaussian functions       ...  184
 # of contracted shells                  ...   40
 # of contracted aux-basis functions     ...  142
 Highest angular momentum                ...    4
 Maximum contraction depth               ...   12
Ratio of auxiliary to basis functions    ...  0.99
Integral package used                  ... LIBINT
 One Electron integrals                  ... done
 Ordering auxiliary basis shells         ... done
 Integral threshhold             Thresh  ...  1.000e-10
 Primitive cut-off               TCut    ...  1.000e-11
 Pre-screening matrix                    ... done
 Shell pair data                         ... 
 Ordering of the shell pairs             ... done (   0.000 sec) 861 of 861 pairs
 Determination of significant pairs      ... done (   0.000 sec)
 Creation of shell pair data             ... done (   0.001 sec)
 Storage of shell pair data              ... done (   0.092 sec)
 Shell pair data done in (   0.094 sec)
 Computing two index integrals           ... done
 Cholesky decomposition of the V-matrix  ... done


Timings:
 Total evaluation time                   ...   3.187 sec (  0.053 min)
 One electron matrix time                ...   0.046 sec (  0.001 min) =  1.4%
 Schwartz matrix evaluation time         ...   3.011 sec (  0.050 min) = 94.5%
 Two index repulsion integral time       ...   0.002 sec (  0.000 min) =  0.0%
 Cholesky decomposition of V             ...   0.001 sec (  0.000 min) =  0.0%
 Three index repulsion integral time     ...   0.000 sec (  0.000 min) =  0.0%



           ************************************************************
           *        Program running with 24 parallel MPI-processes    *
           *              working on a common directory               *
           ************************************************************
-------------------------------------------------------------------------------
                                 ORCA SCF
-------------------------------------------------------------------------------

------------
SCF SETTINGS
------------
Hamiltonian:
 Density Functional     Method          .... DFT(GTOs)
 Exchange Functional    Exchange        .... TPSS
 Correlation Functional Correlation     .... TPSS
 LDA part of GGA corr.  LDAOpt          .... PW91-LDA
 Gradients option       PostSCFGGA      .... off
   Density functional embedding theory  .... OFF
   NL short-range parameter             ....  5.000000
 RI-approximation to the Coulomb term is turned on
   Number of auxiliary basis functions  .... 142


General Settings:
 Integral files         IntName         .... 54_CuS
 Hartree-Fock type      HFTyp           .... UHF
 Total Charge           Charge          ....    0
 Multiplicity           Mult            ....    2
 Number of Electrons    NEL             ....   45
 Basis Dimension        Dim             ....  143
 Nuclear Repulsion      ENuc            ....    119.3174974820 Eh

Convergence Acceleration:
 DIIS                   CNVDIIS         .... on
   Start iteration      DIISMaxIt       ....    12
   Startup error        DIISStart       ....  0.200000
   # of expansion vecs  DIISMaxEq       ....     5
   Bias factor          DIISBfac        ....   1.050
   Max. coefficient     DIISMaxC        ....  10.000
 Newton-Raphson         CNVNR           .... off
 SOSCF                  CNVSOSCF        .... off
 Level Shifting         CNVShift        .... on
   Level shift para.    LevelShift      ....    0.2500
   Turn off err/grad.   ShiftErr        ....    0.0010
 Zerner damping         CNVZerner       .... off
 Static damping         CNVDamp         .... on
   Fraction old density DampFac         ....    0.7000
   Max. Damping (<1)    DampMax         ....    0.9800
   Min. Damping (>=0)   DampMin         ....    0.0000
   Turn off err/grad.   DampErr         ....    0.1000
 Fernandez-Rico         CNVRico         .... off

SCF Procedure:
 Maximum # iterations   MaxIter         ....   125
 SCF integral mode      SCFMode         .... Direct
   Integral package                     .... LIBINT
 Reset frequency        DirectResetFreq ....    20
 Integral Threshold     Thresh          ....  1.000e-10 Eh
 Primitive CutOff       TCut            ....  1.000e-11 Eh

Convergence Tolerance:
 Convergence Check Mode ConvCheckMode   .... Total+1el-Energy
 Convergence forced     ConvForced      .... 0
 Energy Change          TolE            ....  1.000e-06 Eh
 1-El. energy change                    ....  1.000e-03 Eh
 DIIS Error             TolErr          ....  1.000e-06


Diagonalization of the overlap matrix:
Smallest eigenvalue                        ... 1.697e-04
Time for diagonalization                   ...    0.004 sec
Threshold for overlap eigenvalues          ... 1.000e-08
Number of eigenvalues below threshold      ... 0
Time for construction of square roots      ...    0.003 sec
Total time needed                          ...    0.007 sec

-------------------
DFT GRID GENERATION
-------------------

General Integration Accuracy     IntAcc      ...  4.670
Radial Grid Type                 RadialGrid  ... Gauss-Chebyshev
Angular Grid (max. acc.)         AngularGrid ... Lebedev-302
Angular grid pruning method      GridPruning ... 3 (G Style)
Weight generation scheme         WeightScheme... Becke
Basis function cutoff            BFCut       ...    1.0000e-10
Integration weight cutoff        WCut        ...    1.0000e-14
Grids for H and He will be reduced by one unit

# of grid points (after initial pruning)     ...  16402 (   0.0 sec)
# of grid points (after weights+screening)   ...  16374 (   0.0 sec)
nearest neighbour list constructed           ...    0.0 sec
Grid point re-assignment to atoms done       ...    0.0 sec
Grid point division into batches done        ...    0.1 sec
Reduced shell lists constructed in    0.1 sec

Total number of grid points                  ...    16374
Total number of batches                      ...      257
Average number of points per batch           ...       63
Average number of grid points per atom       ...     8187
Average number of shells per batch           ...    15.00 (36.59%)
Average number of basis functions per batch  ...    36.17 (25.29%)
Average number of large shells per batch     ...     7.58 (50.56%)
Average number of large basis fcns per batch ...    18.42 (50.92%)
Maximum spatial batch extension              ...  23.02, 23.02, 16.62 au
Average spatial batch extension              ...   0.79,  0.78,  0.61 au

Time for grid setup =    0.174 sec

------------------------------
INITIAL GUESS: MODEL POTENTIAL
------------------------------
Loading Hartree-Fock densities                     ... done
Calculating cut-offs                               ... done
Setting up the integral package                    ... done
Initializing the effective Hamiltonian             ... done
Starting the Coulomb interaction                   ... done (   0.0 sec)
Reading the grid                                   ... done
Mapping shells                                     ... done
Starting the XC term evaluation                    ... done (   0.0 sec)
  promolecular density results
     # of electrons  =     45.000028287
     EX              =    -90.335450598
     EC              =     -1.957395918
     EX+EC           =    -92.292846517
Transforming the Hamiltonian                       ... done (   0.0 sec)
Diagonalizing the Hamiltonian                      ... done (   0.0 sec)
Back transforming the eigenvectors                 ... done (   0.0 sec)
Now organizing SCF variables                       ... done
                      ------------------
                      INITIAL GUESS DONE (   0.3 sec)
                      ------------------
--------------
SCF ITERATIONS
--------------
ITER       Energy         Delta-E        Max-DP      RMS-DP      [F,P]     Damp
               ***  Starting incremental Fock matrix formation  ***
  0  -2038.7726862743   0.000000000000 0.02860774  0.00062600  0.1072464 0.7000
  1  -2038.7942103946  -0.021524120255 0.02440586  0.00046612  0.0507411 0.7000
                               ***Turning on DIIS***
  2  -2038.8029034979  -0.008693103320 0.04524337  0.00078726  0.0191643 0.0000
  3  -2038.8093436379  -0.006440139997 0.01562253  0.00031434  0.0629438 0.0000
  4  -2038.8163772312  -0.007033593330 0.00957194  0.00015093  0.0242820 0.0000
  5  -2038.8173917300  -0.001014498719 0.00415781  0.00007087  0.0166439 0.0000
  6  -2038.8178216571  -0.000429927173 0.00220118  0.00003226  0.0053016 0.0000
  7  -2038.8178877953  -0.000066138123 0.00115138  0.00001797  0.0030698 0.0000
  8  -2038.8179066856  -0.000018890377 0.00062598  0.00001085  0.0019575 0.0000
  9  -2038.8179139588  -0.000007273136 0.00054947  0.00000713  0.0011389 0.0000
 10  -2038.8179163639  -0.000002405124 0.00136268  0.00001524  0.0007208 0.0000
 11  -2038.8179182040  -0.000001840097 0.00029520  0.00000300  0.0006880 0.0000
 12  -2038.8179183160  -0.000000112045 0.00007733  0.00000114  0.0001241 0.0000
 13  -2038.8179185883  -0.000000272233 0.00001674  0.00000034  0.0000273 0.0000
                 **** Energy Check signals convergence ****

               *****************************************************
               *                     SUCCESS                       *
               *           SCF CONVERGED AFTER  14 CYCLES          *
               *****************************************************


----------------
TOTAL SCF ENERGY
----------------

Total Energy       :        -2038.81791821 Eh          -55479.05606 eV

Components:
Nuclear Repulsion  :          119.31749748 Eh            3246.79417 eV
Electronic Energy  :        -2158.13541569 Eh          -58725.85023 eV
One Electron Energy:        -3074.16304695 Eh          -83652.22930 eV
Two Electron Energy:          916.02763125 Eh           24926.37908 eV

Virial components:
Potential Energy   :        -4074.22372607 Eh         -110865.26387 eV
Kinetic Energy     :         2035.40580786 Eh           55386.20781 eV
Virial Ratio       :            2.00167638


DFT components:
N(Alpha)           :       23.000009402568 electrons
N(Beta)            :       22.000009686215 electrons
N(Total)           :       45.000019088783 electrons
E(X)               :      -90.889924872991 Eh       
E(C)               :       -1.972832292353 Eh       
E(XC)              :      -92.862757165344 Eh       
DFET-embed. en.    :        0.000000000000 Eh       

---------------
SCF CONVERGENCE
---------------

  Last Energy change         ...    3.7899e-07  Tolerance :   1.0000e-06
  Last MAX-Density change    ...    1.2070e-05  Tolerance :   1.0000e-05
  Last RMS-Density change    ...    1.6726e-07  Tolerance :   1.0000e-06
  Last DIIS Error            ...    9.4774e-06  Tolerance :   1.0000e-06

             **** THE GBW FILE WAS UPDATED (54_CuS.gbw) ****
             **** DENSITY FILE WAS UPDATED (54_CuS.scfp) ****
             **** ENERGY FILE WAS UPDATED (54_CuS.en.tmp) ****
----------------------
UHF SPIN CONTAMINATION
----------------------

Warning: in a DFT calculation there is little theoretical justification to 
         calculate <S**2> as in Hartree-Fock theory. We will do it anyways
         but you should keep in mind that the values have only limited relevance

Expectation value of <S**2>     :     0.754986
Ideal value S*(S+1) for S=0.5   :     0.750000
Deviation                       :     0.004986

             **** THE GBW FILE WAS UPDATED (54_CuS.gbw) ****
             **** DENSITY FILE WAS UPDATED (54_CuS.scfp) ****
----------------
ORBITAL ENERGIES
----------------
                 SPIN UP ORBITALS
  NO   OCC          E(Eh)            E(eV) 
   0   1.0000    -322.126854     -8765.5173 
   1   1.0000     -88.379815     -2404.9370 
   2   1.0000     -38.423373     -1045.5531 
   3   1.0000     -33.640874      -915.4147 
   4   1.0000     -33.640855      -915.4142 
   5   1.0000     -33.638646      -915.3541 
   6   1.0000      -7.734147      -210.4568 
   7   1.0000      -5.720605      -155.6656 
   8   1.0000      -5.711297      -155.4123 
   9   1.0000      -5.705477      -155.2539 
  10   1.0000      -4.204298      -114.4048 
  11   1.0000      -2.723746       -74.1169 
  12   1.0000      -2.716366       -73.9161 
  13   1.0000      -2.704517       -73.5937 
  14   1.0000      -0.619761       -16.8645 
  15   1.0000      -0.306251        -8.3335 
  16   1.0000      -0.296267        -8.0618 
  17   1.0000      -0.276698        -7.5293 
  18   1.0000      -0.254405        -6.9227 
  19   1.0000      -0.254169        -6.9163 
  20   1.0000      -0.232176        -6.3178 
  21   1.0000      -0.232156        -6.3173 
  22   1.0000      -0.199977        -5.4416 
  23   0.0000      -0.127717        -3.4753 
  24   0.0000      -0.021689        -0.5902 
  25   0.0000      -0.016574        -0.4510 
  26   0.0000       0.005998         0.1632 
  27   0.0000       0.008667         0.2359 
  28   0.0000       0.032811         0.8928 
  29   0.0000       0.035167         0.9570 
  30   0.0000       0.061599         1.6762 
  31   0.0000       0.073494         1.9999 
  32   0.0000       0.078683         2.1411 
  33   0.0000       0.085184         2.3180 
  34   0.0000       0.110058         2.9948 
  35   0.0000       0.110880         3.0172 
  36   0.0000       0.117957         3.2098 
  37   0.0000       0.151515         4.1229 
  38   0.0000       0.157911         4.2970 
  39   0.0000       0.158055         4.3009 
  40   0.0000       0.192463         5.2372 
  41   0.0000       0.196836         5.3562 
  42   0.0000       0.204442         5.5632 
  43   0.0000       0.205088         5.5807 
  44   0.0000       0.211917         5.7666 
  45   0.0000       0.279288         7.5998 
  46   0.0000       0.288651         7.8546 
  47   0.0000       0.299747         8.1565 
  48   0.0000       0.337352         9.1798 
  49   0.0000       0.462605        12.5881 
  50   0.0000       0.482170        13.1205 
  51   0.0000       0.507935        13.8216 
  52   0.0000       0.509899        13.8751 
  53   0.0000       0.528911        14.3924 
  54   0.0000       0.530228        14.4282 
  55   0.0000       0.541860        14.7448 
  56   0.0000       0.586201        15.9513 
  57   0.0000       0.586555        15.9610 
  58   0.0000       0.625360        17.0169 
  59   0.0000       0.652546        17.7567 
  60   0.0000       0.689046        18.7499 
  61   0.0000       0.692787        18.8517 
  62   0.0000       0.692996        18.8574 
  63   0.0000       0.703947        19.1554 
  64   0.0000       0.730463        19.8769 
  65   0.0000       0.746326        20.3086 
  66   0.0000       0.749066        20.3831 
  67   0.0000       0.881932        23.9986 
  68   0.0000       0.890850        24.2413 
  69   0.0000       0.903081        24.5741 
  70   0.0000       0.985854        26.8264 
  71   0.0000       0.997221        27.1358 
  72   0.0000       1.123648        30.5760 
  73   0.0000       1.383968        37.6597 
  74   0.0000       1.402475        38.1633 
  75   0.0000       1.402478        38.1634 
  76   0.0000       1.514058        41.1996 
  77   0.0000       1.514196        41.2034 
  78   0.0000       1.658072        45.1184 
  79   0.0000       1.672756        45.5180 
  80   0.0000       1.748026        47.5662 
  81   0.0000       1.749114        47.5958 
  82   0.0000       1.858270        50.5661 
  83   0.0000       1.881712        51.2040 
  84   0.0000       1.891223        51.4628 
  85   0.0000       1.965516        53.4844 
  86   0.0000       2.014169        54.8083 
  87   0.0000       2.031647        55.2839 
  88   0.0000       2.058726        56.0208 
  89   0.0000       2.059091        56.0307 
  90   0.0000       2.066317        56.2273 
  91   0.0000       2.066570        56.2342 
  92   0.0000       2.102143        57.2022 
  93   0.0000       2.102848        57.2214 
  94   0.0000       2.113750        57.5181 
  95   0.0000       2.135053        58.0978 
  96   0.0000       2.141357        58.2693 
  97   0.0000       2.216397        60.3112 
  98   0.0000       2.354630        64.0727 
  99   0.0000       2.377276        64.6890 
 100   0.0000       2.999954        81.6329 
 101   0.0000       3.812847       103.7528 
 102   0.0000       4.172880       113.5498 
 103   0.0000       4.181936       113.7963 
 104   0.0000       4.284828       116.5961 
 105   0.0000       4.284834       116.5963 
 106   0.0000       4.339123       118.0735 
 107   0.0000       4.339257       118.0772 
 108   0.0000       4.504512       122.5740 
 109   0.0000       4.511927       122.7758 
 110   0.0000       4.520925       123.0206 
 111   0.0000       4.813667       130.9865 
 112   0.0000       4.927247       134.0772 
 113   0.0000       5.984069       162.8348 
 114   0.0000       5.984075       162.8350 
 115   0.0000       5.985585       162.8760 
 116   0.0000       5.985644       162.8776 
 117   0.0000       5.992482       163.0637 
 118   0.0000       5.992502       163.0643 
 119   0.0000       6.050875       164.6527 
 120   0.0000       6.058182       164.8515 
 121   0.0000       6.191633       168.4829 
 122   0.0000       7.793029       212.0591 
 123   0.0000       7.793037       212.0593 
 124   0.0000       7.840234       213.3436 
 125   0.0000       7.850134       213.6130 
 126   0.0000       8.325135       226.5384 
 127   0.0000      13.849904       376.8751 
 128   0.0000      13.849905       376.8751 
 129   0.0000      13.873372       377.5137 
 130   0.0000      13.873722       377.5232 
 131   0.0000      13.962197       379.9307 
 132   0.0000      13.974253       380.2588 
 133   0.0000      14.019168       381.4809 
 134   0.0000      16.418222       446.7625 
 135   0.0000      16.418975       446.7830 
 136   0.0000      16.419052       446.7851 
 137   0.0000      16.419185       446.7887 
 138   0.0000      16.427011       447.0017 
 139   0.0000      16.427066       447.0032 
 140   0.0000      16.444931       447.4893 
 141   0.0000      16.455851       447.7865 
 142   0.0000      16.499892       448.9849 

                 SPIN DOWN ORBITALS
  NO   OCC          E(Eh)            E(eV) 
   0   1.0000    -322.126804     -8765.5160 
   1   1.0000     -88.375745     -2404.8263 
   2   1.0000     -38.420182     -1045.4663 
   3   1.0000     -33.637675      -915.3277 
   4   1.0000     -33.637462      -915.3219 
   5   1.0000     -33.637410      -915.3205 
   6   1.0000      -7.730267      -210.3513 
   7   1.0000      -5.708892      -155.3469 
   8   1.0000      -5.708748      -155.3429 
   9   1.0000      -5.703156      -155.1908 
  10   1.0000      -4.197279      -114.2138 
  11   1.0000      -2.714449       -73.8639 
  12   1.0000      -2.707292       -73.6692 
  13   1.0000      -2.702187       -73.5303 
  14   1.0000      -0.587438       -15.9850 
  15   1.0000      -0.299445        -8.1483 
  16   1.0000      -0.272629        -7.4186 
  17   1.0000      -0.268779        -7.3138 
  18   1.0000      -0.250896        -6.8272 
  19   1.0000      -0.250626        -6.8199 
  20   1.0000      -0.227936        -6.2024 
  21   1.0000      -0.191540        -5.2121 
  22   0.0000      -0.174635        -4.7521 
  23   0.0000      -0.123398        -3.3578 
  24   0.0000      -0.016694        -0.4543 
  25   0.0000      -0.015304        -0.4164 
  26   0.0000       0.008818         0.2400 
  27   0.0000       0.009409         0.2560 
  28   0.0000       0.034987         0.9520 
  29   0.0000       0.036002         0.9797 
  30   0.0000       0.063167         1.7189 
  31   0.0000       0.080005         2.1770 
  32   0.0000       0.083420         2.2700 
  33   0.0000       0.087540         2.3821 
  34   0.0000       0.114835         3.1248 
  35   0.0000       0.115204         3.1349 
  36   0.0000       0.119754         3.2587 
  37   0.0000       0.158126         4.3028 
  38   0.0000       0.159336         4.3357 
  39   0.0000       0.162913         4.4331 
  40   0.0000       0.196668         5.3516 
  41   0.0000       0.196708         5.3527 
  42   0.0000       0.214651         5.8409 
  43   0.0000       0.219584         5.9752 
  44   0.0000       0.221259         6.0208 
  45   0.0000       0.284055         7.7295 
  46   0.0000       0.301204         8.1962 
  47   0.0000       0.304508         8.2861 
  48   0.0000       0.341183         9.2841 
  49   0.0000       0.487030        13.2528 
  50   0.0000       0.492213        13.3938 
  51   0.0000       0.520074        14.1519 
  52   0.0000       0.521104        14.1800 
  53   0.0000       0.536270        14.5926 
  54   0.0000       0.544047        14.8043 
  55   0.0000       0.545027        14.8309 
  56   0.0000       0.609468        16.5845 
  57   0.0000       0.612292        16.6613 
  58   0.0000       0.636408        17.3175 
  59   0.0000       0.659479        17.9453 
  60   0.0000       0.705946        19.2098 
  61   0.0000       0.708769        19.2866 
  62   0.0000       0.712600        19.3908 
  63   0.0000       0.713066        19.4035 
  64   0.0000       0.739293        20.1172 
  65   0.0000       0.757905        20.6236 
  66   0.0000       0.759254        20.6604 
  67   0.0000       0.890209        24.2238 
  68   0.0000       0.891068        24.2472 
  69   0.0000       0.909617        24.7519 
  70   0.0000       0.997628        27.1468 
  71   0.0000       0.998143        27.1608 
  72   0.0000       1.129899        30.7461 
  73   0.0000       1.400275        38.1034 
  74   0.0000       1.403033        38.1785 
  75   0.0000       1.403038        38.1786 
  76   0.0000       1.518961        41.3330 
  77   0.0000       1.519389        41.3447 
  78   0.0000       1.674691        45.5706 
  79   0.0000       1.677614        45.6502 
  80   0.0000       1.780430        48.4480 
  81   0.0000       1.784052        48.5465 
  82   0.0000       1.887562        51.3632 
  83   0.0000       1.892969        51.5103 
  84   0.0000       1.900626        51.7187 
  85   0.0000       1.978834        53.8468 
  86   0.0000       2.035560        55.3904 
  87   0.0000       2.038606        55.4733 
  88   0.0000       2.068446        56.2853 
  89   0.0000       2.068854        56.2964 
  90   0.0000       2.105145        57.2839 
  91   0.0000       2.106301        57.3154 
  92   0.0000       2.124423        57.8085 
  93   0.0000       2.125674        57.8425 
  94   0.0000       2.136842        58.1464 
  95   0.0000       2.146437        58.4075 
  96   0.0000       2.151109        58.5346 
  97   0.0000       2.228283        60.6347 
  98   0.0000       2.382460        64.8300 
  99   0.0000       2.388554        64.9959 
 100   0.0000       3.013321        81.9966 
 101   0.0000       3.818142       103.8969 
 102   0.0000       4.178940       113.7147 
 103   0.0000       4.183505       113.8390 
 104   0.0000       4.286677       116.6464 
 105   0.0000       4.286683       116.6466 
 106   0.0000       4.345620       118.2503 
 107   0.0000       4.345721       118.2531 
 108   0.0000       4.508980       122.6956 
 109   0.0000       4.520287       123.0033 
 110   0.0000       4.522559       123.0651 
 111   0.0000       4.826840       131.3450 
 112   0.0000       4.935424       134.2997 
 113   0.0000       5.988108       162.9447 
 114   0.0000       5.988112       162.9448 
 115   0.0000       5.988851       162.9649 
 116   0.0000       5.988962       162.9679 
 117   0.0000       5.993968       163.1042 
 118   0.0000       5.993991       163.1048 
 119   0.0000       6.056208       164.7978 
 120   0.0000       6.058974       164.8731 
 121   0.0000       6.194919       168.5723 
 122   0.0000       7.796907       212.1646 
 123   0.0000       7.796935       212.1654 
 124   0.0000       7.854049       213.7195 
 125   0.0000       7.854115       213.7213 
 126   0.0000       8.330492       226.6842 
 127   0.0000      13.854420       376.9979 
 128   0.0000      13.854422       376.9980 
 129   0.0000      13.885753       377.8506 
 130   0.0000      13.885874       377.8538 
 131   0.0000      13.976281       380.3140 
 132   0.0000      13.977953       380.3594 
 133   0.0000      14.025303       381.6479 
 134   0.0000      16.426513       446.9881 
 135   0.0000      16.427084       447.0037 
 136   0.0000      16.427503       447.0151 
 137   0.0000      16.427555       447.0165 
 138   0.0000      16.431638       447.1276 
 139   0.0000      16.431697       447.1292 
 140   0.0000      16.454853       447.7593 
 141   0.0000      16.459883       447.8962 
 142   0.0000      16.505965       449.1501 

                    ********************************
                    * MULLIKEN POPULATION ANALYSIS *
                    ********************************

--------------------------------------------
MULLIKEN ATOMIC CHARGES AND SPIN POPULATIONS
--------------------------------------------
   0 Cu:    0.403009    0.110833
   1 S :   -0.403009    0.889167
Sum of atomic charges         :   -0.0000000
Sum of atomic spin populations:    1.0000000

-----------------------------------------------------
MULLIKEN REDUCED ORBITAL CHARGES AND SPIN POPULATIONS
-----------------------------------------------------
CHARGE
  0 Cus       :     6.687467  s :     6.687467
      pz      :     4.049990  p :    12.170386
      px      :     4.074980
      py      :     4.045416
      dz2     :     1.889183  d :     9.733313
      dxz     :     1.953669
      dyz     :     1.893952
      dx2y2   :     1.998266
      dxy     :     1.998243
      f0      :     0.001846  f :     0.005749
      f+1     :     0.002191
      f-1     :     0.001641
      f+2     :     0.000033
      f-2     :     0.000036
      f+3     :     0.000001
      f-3     :     0.000001
      g0      :     0.000032  g :     0.000077
      g+1     :     0.000020
      g-1     :     0.000019
      g+2     :     0.000002
      g-2     :     0.000002
      g+3     :     0.000000
      g-3     :     0.000000
      g+4     :     0.000000
      g-4     :     0.000000
  1 S s       :     6.010723  s :     6.010723
      pz      :     3.353805  p :    10.352759
      px      :     3.705364
      py      :     3.293589
      dz2     :     0.005848  d :     0.034458
      dxz     :     0.012705
      dyz     :     0.012669
      dx2y2   :     0.001374
      dxy     :     0.001863
      f0      :     0.000070  f :     0.005069
      f+1     :     0.001566
      f-1     :     0.001818
      f+2     :     0.000586
      f-2     :     0.000632
      f+3     :     0.000185
      f-3     :     0.000213

SPIN
  0 Cus       :    -0.026482  s :    -0.026482
      pz      :    -0.000570  p :     0.016192
      px      :     0.000721
      py      :     0.016041
      dz2     :     0.002672  d :     0.120201
      dxz     :     0.029182
      dyz     :     0.088592
      dx2y2   :    -0.000146
      dxy     :    -0.000099
      f0      :     0.000032  f :     0.000919
      f+1     :     0.000196
      f-1     :     0.000683
      f+2     :     0.000004
      f-2     :     0.000004
      f+3     :     0.000000
      f-3     :     0.000000
      g0      :    -0.000001  g :     0.000002
      g+1     :     0.000000
      g-1     :     0.000001
      g+2     :     0.000001
      g-2     :     0.000001
      g+3     :     0.000000
      g-3     :     0.000000
      g+4     :     0.000000
      g-4     :     0.000000
  1 S s       :     0.001033  s :     0.001033
      pz      :     0.022639  p :     0.886841
      px      :     0.219060
      py      :     0.645141
      dz2     :     0.000027  d :     0.001538
      dxz     :     0.000168
      dyz     :     0.000489
      dx2y2   :     0.000272
      dxy     :     0.000583
      f0      :    -0.000170  f :    -0.000246
      f+1     :    -0.000215
      f-1     :    -0.000424
      f+2     :     0.000075
      f-2     :     0.000125
      f+3     :     0.000177
      f-3     :     0.000187


                     *******************************
                     * LOEWDIN POPULATION ANALYSIS *
                     *******************************

-------------------------------------------
LOEWDIN ATOMIC CHARGES AND SPIN POPULATIONS
-------------------------------------------
   0 Cu:   -0.029733    0.208782
   1 S :    0.029733    0.791218

----------------------------------------------------
LOEWDIN REDUCED ORBITAL CHARGES AND SPIN POPULATIONS
----------------------------------------------------
CHARGE
  0 Cus       :     6.575865  s :     6.575865
      pz      :     4.232364  p :    12.439922
      px      :     4.131525
      py      :     4.076032
      dz2     :     2.035800  d :     9.975176
      dxz     :     2.018687
      dyz     :     1.937741
      dx2y2   :     1.991486
      dxy     :     1.991462
      f0      :     0.017831  f :     0.038483
      f+1     :     0.011685
      f-1     :     0.008786
      f+2     :     0.000087
      f-2     :     0.000091
      f+3     :     0.000001
      f-3     :     0.000001
      g0      :     0.000153  g :     0.000287
      g+1     :     0.000073
      g-1     :     0.000058
      g+2     :     0.000001
      g-2     :     0.000001
      g+3     :     0.000000
      g-3     :     0.000000
      g+4     :     0.000000
      g-4     :     0.000000
  1 S s       :     5.550268  s :     5.550268
      pz      :     3.415949  p :    10.110335
      px      :     3.528170
      py      :     3.166216
      dz2     :     0.104394  d :     0.173394
      dxz     :     0.030897
      dyz     :     0.030906
      dx2y2   :     0.003354
      dxy     :     0.003842
      f0      :     0.066340  f :     0.136271
      f+1     :     0.029457
      f-1     :     0.029365
      f+2     :     0.005332
      f-2     :     0.005379
      f+3     :     0.000185
      f-3     :     0.000213

SPIN
  0 Cus       :    -0.019430  s :    -0.019430
      pz      :    -0.000828  p :     0.057692
      px      :     0.010832
      py      :     0.047688
      dz2     :     0.003197  d :     0.164027
      dxz     :     0.040324
      dyz     :     0.120561
      dx2y2   :    -0.000052
      dxy     :    -0.000003
      f0      :     0.000209  f :     0.006460
      f+1     :     0.001582
      f-1     :     0.004650
      f+2     :     0.000009
      f-2     :     0.000009
      f+3     :     0.000000
      f-3     :     0.000000
      g0      :    -0.000001  g :     0.000034
      g+1     :     0.000008
      g-1     :     0.000025
      g+2     :     0.000001
      g-2     :     0.000001
      g+3     :     0.000000
      g-3     :     0.000000
      g+4     :     0.000000
      g-4     :     0.000000
  1 S s       :     0.004413  s :     0.004413
      pz      :     0.011681  p :     0.783805
      px      :     0.195944
      py      :     0.576180
      dz2     :     0.000061  d :     0.001910
      dxz     :     0.000235
      dyz     :     0.000844
      dx2y2   :     0.000230
      dxy     :     0.000540
      f0      :    -0.000120  f :     0.001089
      f+1     :     0.000187
      f-1     :     0.000575
      f+2     :     0.000017
      f-2     :     0.000066
      f+3     :     0.000177
      f-3     :     0.000187


                      *****************************
                      * MAYER POPULATION ANALYSIS *
                      *****************************

  NA   - Mulliken gross atomic population
  ZA   - Total nuclear charge
  QA   - Mulliken gross atomic charge
  VA   - Mayer's total valence
  BVA  - Mayer's bonded valence
  FA   - Mayer's free valence

  ATOM       NA         ZA         QA         VA         BVA        FA
  0 Cu    28.5970    29.0000     0.4030     1.4380     1.4048     0.0332
  1 S     16.4030    16.0000    -0.4030     2.1462     1.4048     0.7414

  Mayer bond orders larger than 0.100000
B(  0-Cu,  1-S ) :   1.4048 

-------
TIMINGS
-------

Total SCF time: 0 days 0 hours 0 min 3 sec 

Total time                  ....       3.246 sec
Sum of individual times     ....       3.084 sec  ( 95.0%)

Fock matrix formation       ....       2.649 sec  ( 81.6%)
  Split-RI-J                ....       2.015 sec  ( 76.1% of F)
  XC integration            ....       0.564 sec  ( 21.3% of F)
    Basis function eval.    ....       0.076 sec  ( 13.5% of XC)
    Density eval.           ....       0.079 sec  ( 14.0% of XC)
    XC-Functional eval.     ....       0.021 sec  (  3.7% of XC)
    XC-Potential eval.      ....       0.229 sec  ( 40.5% of XC)
Diagonalization             ....       0.079 sec  (  2.4%)
Density matrix formation    ....       0.011 sec  (  0.3%)
Population analysis         ....       0.007 sec  (  0.2%)
Initial guess               ....       0.136 sec  (  4.2%)
Orbital Transformation      ....       0.000 sec  (  0.0%)
Orbital Orthonormalization  ....       0.000 sec  (  0.0%)
DIIS solution               ....       0.029 sec  (  0.9%)
Grid generation             ....       0.174 sec  (  5.4%)


-------------------------------------------------------------------------------
                          DFT DISPERSION CORRECTION                            
                                                                               
                              DFTD3 V3.1  Rev 1                                
                          USING Becke-Johnson damping                          
-------------------------------------------------------------------------------
The TPSS functional is recognized
Active option DFTDOPT                   ...         4   

molecular C6(AA) [au] = 606.090819 


            DFT-D V3
 parameters
 s6 scaling factor         :     1.0000 
 a1 scaling factor         :     0.4535 
 s8 scaling factor         :     1.9435 
 a2 scaling factor         :     4.4752 
 ad hoc parameters k1-k3   :    16.0000     1.3333    -4.0000 

 Edisp/kcal,au: -0.958644626349  -0.001527697292 
 E6   /kcal   :  -0.330382956 
 E8   /kcal   :  -0.628261670 
 % E8         :  65.536451459 

-------------------------   ----------------
Dispersion correction           -0.001527697
-------------------------   ----------------


-------------------------   --------------------
FINAL SINGLE POINT ENERGY     -2038.819445906579
-------------------------   --------------------


                            ***************************************
                            *     ORCA property calculations      *
                            ***************************************

                                    ---------------------
                                    Active property flags
                                    ---------------------
   (+) Dipole Moment


------------------------------------------------------------------------------
                       ORCA ELECTRIC PROPERTIES CALCULATION
------------------------------------------------------------------------------

Dipole Moment Calculation                       ... on
Quadrupole Moment Calculation                   ... off
Polarizability Calculation                      ... off
GBWName                                         ... 54_CuS.gbw
Electron density file                           ... 54_CuS.scfp
The origin for moment calculation is the CENTER OF MASS  = ( 0.000000,  0.000000  1.249323)

-------------
DIPOLE MOMENT
-------------
                                X             Y             Z
Electronic contribution:      0.00000      -0.00000      -5.13791
Nuclear contribution   :      0.00000       0.00000       3.54103
                        -----------------------------------------
Total Dipole Moment    :      0.00000      -0.00000      -1.59688
                        -----------------------------------------
Magnitude (a.u.)       :      1.59688
Magnitude (Debye)      :      4.05896



--------------------
Rotational spectrum 
--------------------
 
Rotational constants in cm-1:     0.000000     0.186806     0.186806 
Rotational constants in MHz :     0.000000  5600.307820  5600.307820 

 Dipole components along the rotational axes: 
x,y,z [a.u.] :    -1.596884    -0.000000     0.000000 
x,y,z [Debye]:    -4.058957    -0.000000     0.000000 

 

Timings for individual modules:

Sum of individual times         ...        7.383 sec (=   0.123 min)
GTO integral calculation        ...        3.723 sec (=   0.062 min)  50.4 %
SCF iterations                  ...        3.660 sec (=   0.061 min)  49.6 %
                             ****ORCA TERMINATED NORMALLY****
TOTAL RUN TIME: 0 days 0 hours 0 minutes 7 seconds 967 msec
