
                                 *****************
                                 * O   R   C   A *
                                 *****************

           --- An Ab Initio, DFT and Semiempirical electronic structure package ---

                  #######################################################
                  #                        -***-                        #
                  #          Department of theory and spectroscopy      #
                  #               Directorship: Frank Neese             #
                  #        Max Planck Institute fuer Kohlenforschung    #
                  #                Kaiser Wilhelm Platz 1               #
                  #                 D-45470 Muelheim/Ruhr               #
                  #                      Germany                        #
                  #                                                     #
                  #                  All rights reserved                #
                  #                        -***-                        #
                  #######################################################


                         Program Version 4.2.0 -  RELEASE  -


 With contributions from (in alphabetic order):
   Daniel Aravena         : Magnetic Suceptibility
   Michael Atanasov       : Ab Initio Ligand Field Theory (pilot matlab implementation)
   Alexander A. Auer      : GIAO ZORA, VPT2
   Ute Becker             : Parallelization
   Giovanni Bistoni       : ED, misc. LED, open-shell LED, HFLED
   Martin Brehm           : Molecular dynamics
   Dmytro Bykov           : SCF Hessian
   Vijay G. Chilkuri      : MRCI spin determinant printing, contributions to CSF-ICE
   Dipayan Datta          : RHF DLPNO-CCSD density
   Achintya Kumar Dutta   : EOM-CC, STEOM-CC
   Dmitry Ganyushin       : Spin-Orbit,Spin-Spin,Magnetic field MRCI
   Miquel Garcia          : C-PCM Hessian, Gaussian charge scheme
   Yang Guo               : DLPNO-NEVPT2, CIM, IAO-localization
   Andreas Hansen         : Spin unrestricted coupled pair/coupled cluster methods
   Benjamin Helmich-Paris : CASSCF linear response (MC-RPA)
   Lee Huntington         : MR-EOM, pCC
   Robert Izsak           : Overlap fitted RIJCOSX, COSX-SCS-MP3, EOM
   Christian Kollmar      : KDIIS, OOCD, Brueckner-CCSD(T), CCSD density
   Simone Kossmann        : Meta GGA functionals, TD-DFT gradient, OOMP2, MP2 Hessian
   Martin Krupicka        : AUTO-CI
   Lucas Lang             : DCDCAS
   Dagmar Lenk            : GEPOL surface, SMD
   Dimitrios Liakos       : Extrapolation schemes; Compound Job, initial MDCI parallelization
   Dimitrios Manganas     : Further ROCIS development; embedding schemes
   Dimitrios Pantazis     : SARC Basis sets
   Taras Petrenko         : DFT Hessian,TD-DFT gradient, ASA, ECA, R-Raman, ABS, FL, XAS/XES, NRVS
   Peter Pinski           : DLPNO-MP2, DLPNO-MP2 Gradient
   Christoph Reimann      : Effective Core Potentials
   Marius Retegan         : Local ZFS, SOC
   Christoph Riplinger    : Optimizer, TS searches, QM/MM, DLPNO-CCSD(T), (RO)-DLPNO pert. Triples
   Tobias Risthaus        : Range-separated hybrids, TD-DFT gradient, RPA, STAB
   Michael Roemelt        : Original ROCIS implementation
   Masaaki Saitow         : Open-shell DLPNO-CCSD energy and density
   Barbara Sandhoefer     : DKH picture change effects
   Avijit Sen             : IP-ROCIS
   Kantharuban Sivalingam : CASSCF convergence, NEVPT2, FIC-MRCI
   Bernardo de Souza      : ESD, SOC TD-DFT
   Georgi Stoychev        : AutoAux, RI-MP2 NMR
   Willem Van den Heuvel  : Paramagnetic NMR
   Boris Wezisla          : Elementary symmetry handling
   Frank Wennmohs         : Technical directorship


 We gratefully acknowledge several colleagues who have allowed us to
 interface, adapt or use parts of their codes:
   Stefan Grimme, W. Hujo, H. Kruse,             : VdW corrections, initial TS optimization,
                  C. Bannwarth                     DFT functionals, gCP, sTDA/sTD-DF
   Ed Valeev, F. Pavosevic, A. Kumar             : LibInt (2-el integral package), F12 methods
   Garnet Chan, S. Sharma, J. Yang, R. Olivares  : DMRG
   Ulf Ekstrom                                   : XCFun DFT Library
   Mihaly Kallay                                 : mrcc  (arbitrary order and MRCC methods)
   Andreas Klamt, Michael Diedenhofen            : otool_cosmo (COSMO solvation model)
   Jiri Pittner, Ondrej Demel                    : Mk-CCSD
   Frank Weinhold                                : gennbo (NPA and NBO analysis)
   Christopher J. Cramer and Donald G. Truhlar   : smd solvation model
   Lars Goerigk                                  : TD-DFT with DH, B97 family of functionals
   V. Asgeirsson, H. Jonsson                     : NEB implementation
   FAccTs GmbH                                   : IRC, NEB, NEB-TS, Multilevel, MM, QM/MM, CI optimization
   S Lehtola, MJT Oliveira, MAL Marques          : LibXC Library


 Your calculation uses the libint2 library for the computation of 2-el integrals
 For citations please refer to: http://libint.valeyev.net

 Your ORCA version has been built with support for libXC version: 4.2.3
 For citations please refer to: https://tddft.org/programs/libxc/

 This ORCA versions uses:
   CBLAS   interface :  Fast vector & matrix operations
   LAPACKE interface :  Fast linear algebra routines
   SCALAPACK package :  Parallel linear algebra routines


Your calculation utilizes the atom-pairwise dispersion correction
with the Becke-Johnson damping scheme (D3BJ)
Cite in your paper:
S.Grimme, S.Ehrlich, L.Goerigk, J Comput Chem, (2011), 32, 1456–1465 
S.Grimme, J.Antony, S.Ehrlich and H.Krieg, J.Chem.Phys., 132, (2010), 154104 
   

----- Orbital basis set information -----
Your calculation utilizes the basis: aug-cc-pVTZ 
    H, B-Ne : Obtained from the ccRepo (grant-hill.group.shef.ac.uk/ccrepo) Feb. 2017
              R. A. Kendall, T. H. Dunning, Jr., R. J. Harrison, J. Chem. Phys. 96, 6796 (1992)
         He : Obtained from the ccRepo (grant-hill.group.shef.ac.uk/ccrepo) Feb. 2017
              D. E. Woon, T. H. Dunning, Jr., J. Chem. Phys. 100, 2975 (1994)
  Li-Be, Na : Obtained from the ccRepo (grant-hill.group.shef.ac.uk/ccrepo) Feb. 2017
              B. P. Prascher, D. E. Woon, K. A. Peterson, T. H. Dunning, Jr., A. K. Wilson, Theor. Chem. Acc. 128, 69 (2011)
         Mg : Obtained from the Peterson Research Group Website (tyr0.chem.wsu.edu/~kipeters) Feb. 2017
              B. P. Prascher, D. E. Woon, K. A. Peterson, T. H. Dunning, Jr., A. K. Wilson, Theor. Chem. Acc. 128, 69 (2011)
      Al-Ar : Obtained from the ccRepo (grant-hill.group.shef.ac.uk/ccrepo) Feb. 2017
              D. E. Woon, T. H. Dunning, Jr., J. Chem. Phys. 98, 1358 (1993)
      Sc-Zn : Obtained from the ccRepo (grant-hill.group.shef.ac.uk/ccrepo) Feb. 2017
              N. B. Balabanov, K. A. Peterson, J. Chem. Phys. 123, 064107 (2005)
              N. B. Balabanov, K. A. Peterson, J. Chem. Phys. 125, 074110 (2006)
      Ga-Kr : Obtained from the ccRepo (grant-hill.group.shef.ac.uk/ccrepo) Feb. 2017
              A. K. Wilson, D. E. Woon, K. A. Peterson, T. H. Dunning, Jr., J. Chem. Phys. 110, 7667 (1999)
     Ag, Au : Obtained from the Peterson Research Group Website (tyr0.chem.wsu.edu/~kipeters) Feb. 2017
              K. A. Peterson, C. Puzzarini, Theor. Chem. Acc. 114, 283 (2005)

----- AuxJ basis set information -----
Your calculation utilizes the auxiliary basis: def2/J
   F. Weigend, Phys. Chem. Chem. Phys. 8, 1057 (2006).

================================================================================
                                        WARNINGS
                       Please study these warnings very carefully!
================================================================================


WARNING: your system is open-shell and RHF/RKS was chosen
  ===> : WILL SWITCH to UHF/UKS


INFO   : the flag for use of LIBINT has been found!

================================================================================
                                       INPUT FILE
================================================================================
NAME = 72_F.in
|  1> #
|  2> # 72_F tpss/aug-cc-pvtz
|  3> #
|  4> ! tpss d3bj aug-cc-pvtz def2/j grid4 nofinalgrid
|  5> 
|  6> *xyz 0 2
|  7> F 0.0 0.0 0.0
|  8> *
|  9> 
| 10> %pal
| 11> nprocs 24
| 12> end
| 13> 
| 14> 
| 15>                          ****END OF INPUT****
================================================================================

                       ****************************
                       * Single Point Calculation *
                       ****************************

---------------------------------
CARTESIAN COORDINATES (ANGSTROEM)
---------------------------------
  F      0.000000    0.000000    0.000000

----------------------------
CARTESIAN COORDINATES (A.U.)
----------------------------
  NO LB      ZA    FRAG     MASS         X           Y           Z
   0 F     9.0000    0    18.998    0.000000    0.000000    0.000000

--------------------------------
INTERNAL COORDINATES (ANGSTROEM)
--------------------------------
 F      0   0   0     0.000000000000     0.00000000     0.00000000

---------------------------
INTERNAL COORDINATES (A.U.)
---------------------------
 F      0   0   0     0.000000000000     0.00000000     0.00000000

---------------------
BASIS SET INFORMATION
---------------------
There are 1 groups of distinct atoms

 Group   1 Type F   : 19s6p3d2f contracted to 5s4p3d2f pattern {88111/3111/111/11}

Atom   0F    basis set group =>   1
---------------------------------
AUXILIARY/J BASIS SET INFORMATION
---------------------------------
There are 1 groups of distinct atoms

 Group   1 Type F   : 12s5p4d2f1g contracted to 6s4p3d1f1g pattern {711111/2111/211/2/1}

Atom   0F    basis set group =>   1


           ************************************************************
           *        Program running with 24 parallel MPI-processes    *
           *              working on a common directory               *
           ************************************************************
------------------------------------------------------------------------------
                           ORCA GTO INTEGRAL CALCULATION
                           -- RI-GTO INTEGRALS CHOSEN --
------------------------------------------------------------------------------

                         BASIS SET STATISTICS AND STARTUP INFO

Gaussian basis set:
 # of primitive gaussian shells          ...   30
 # of primitive gaussian functions       ...   66
 # of contracted shells                  ...   14
 # of contracted basis functions         ...   46
 Highest angular momentum                ...    3
 Maximum contraction depth               ...    8
Auxiliary gaussian basis set:
 # of primitive gaussian shells          ...   24
 # of primitive gaussian functions       ...   70
 # of contracted shells                  ...   15
 # of contracted aux-basis functions     ...   49
 Highest angular momentum                ...    4
 Maximum contraction depth               ...    7
Ratio of auxiliary to basis functions    ...  1.07
Integral package used                  ... LIBINT
 One Electron integrals                  ... done
 Ordering auxiliary basis shells         ... done
 Integral threshhold             Thresh  ...  1.000e-10
 Primitive cut-off               TCut    ...  1.000e-11
 Pre-screening matrix                    ... done
 Shell pair data                         ... 
 Ordering of the shell pairs             ... done (   0.000 sec) 105 of 105 pairs
 Determination of significant pairs      ... done (   0.000 sec)
 Creation of shell pair data             ... done (   0.000 sec)
 Storage of shell pair data              ... done (   0.003 sec)
 Shell pair data done in (   0.003 sec)
 Computing two index integrals           ... done
 Cholesky decomposition of the V-matrix  ... done


Timings:
 Total evaluation time                   ...   0.200 sec (  0.003 min)
 One electron matrix time                ...   0.005 sec (  0.000 min) =  2.7%
 Schwartz matrix evaluation time         ...   0.167 sec (  0.003 min) = 83.7%
 Two index repulsion integral time       ...   0.000 sec (  0.000 min) =  0.1%
 Cholesky decomposition of V             ...   0.001 sec (  0.000 min) =  0.3%
 Three index repulsion integral time     ...   0.000 sec (  0.000 min) =  0.0%



           ************************************************************
           *        Program running with 24 parallel MPI-processes    *
           *              working on a common directory               *
           ************************************************************
-------------------------------------------------------------------------------
                                 ORCA SCF
-------------------------------------------------------------------------------

------------
SCF SETTINGS
------------
Hamiltonian:
 Density Functional     Method          .... DFT(GTOs)
 Exchange Functional    Exchange        .... TPSS
 Correlation Functional Correlation     .... TPSS
 LDA part of GGA corr.  LDAOpt          .... PW91-LDA
 Gradients option       PostSCFGGA      .... off
   Density functional embedding theory  .... OFF
   NL short-range parameter             ....  5.000000
 RI-approximation to the Coulomb term is turned on
   Number of auxiliary basis functions  .... 49


General Settings:
 Integral files         IntName         .... 72_F
 Hartree-Fock type      HFTyp           .... UHF
 Total Charge           Charge          ....    0
 Multiplicity           Mult            ....    2
 Number of Electrons    NEL             ....    9
 Basis Dimension        Dim             ....   46
 Nuclear Repulsion      ENuc            ....      0.0000000000 Eh

Convergence Acceleration:
 DIIS                   CNVDIIS         .... on
   Start iteration      DIISMaxIt       ....    12
   Startup error        DIISStart       ....  0.200000
   # of expansion vecs  DIISMaxEq       ....     5
   Bias factor          DIISBfac        ....   1.050
   Max. coefficient     DIISMaxC        ....  10.000
 Newton-Raphson         CNVNR           .... off
 SOSCF                  CNVSOSCF        .... off
 Level Shifting         CNVShift        .... on
   Level shift para.    LevelShift      ....    0.2500
   Turn off err/grad.   ShiftErr        ....    0.0010
 Zerner damping         CNVZerner       .... off
 Static damping         CNVDamp         .... on
   Fraction old density DampFac         ....    0.7000
   Max. Damping (<1)    DampMax         ....    0.9800
   Min. Damping (>=0)   DampMin         ....    0.0000
   Turn off err/grad.   DampErr         ....    0.1000
 Fernandez-Rico         CNVRico         .... off

SCF Procedure:
 Maximum # iterations   MaxIter         ....   125
 SCF integral mode      SCFMode         .... Direct
   Integral package                     .... LIBINT
 Reset frequency        DirectResetFreq ....    20
 Integral Threshold     Thresh          ....  1.000e-10 Eh
 Primitive CutOff       TCut            ....  1.000e-11 Eh

Convergence Tolerance:
 Convergence Check Mode ConvCheckMode   .... Total+1el-Energy
 Convergence forced     ConvForced      .... 0
 Energy Change          TolE            ....  1.000e-06 Eh
 1-El. energy change                    ....  1.000e-03 Eh
 DIIS Error             TolErr          ....  1.000e-06


Diagonalization of the overlap matrix:
Smallest eigenvalue                        ... 2.846e-02
Time for diagonalization                   ...    0.001 sec
Threshold for overlap eigenvalues          ... 1.000e-08
Number of eigenvalues below threshold      ... 0
Time for construction of square roots      ...    0.001 sec
Total time needed                          ...    0.002 sec

-------------------
DFT GRID GENERATION
-------------------

General Integration Accuracy     IntAcc      ...  4.670
Radial Grid Type                 RadialGrid  ... Gauss-Chebyshev
Angular Grid (max. acc.)         AngularGrid ... Lebedev-302
Angular grid pruning method      GridPruning ... 3 (G Style)
Weight generation scheme         WeightScheme... Becke
Basis function cutoff            BFCut       ...    1.0000e-10
Integration weight cutoff        WCut        ...    1.0000e-14
Grids for H and He will be reduced by one unit

# of grid points (after initial pruning)     ...   6272 (   0.0 sec)
# of grid points (after weights+screening)   ...   6272 (   0.0 sec)
Grid point division into batches done        ...    0.0 sec
Reduced shell lists constructed in    0.0 sec

Total number of grid points                  ...     6272
Total number of batches                      ...       99
Average number of points per batch           ...       63
Average number of grid points per atom       ...     6272
Average number of shells per batch           ...     1.67 (11.90%)
Average number of basis functions per batch  ...     3.33 ( 7.25%)
Average number of large shells per batch     ...     1.67 (100.00%)
Average number of large basis fcns per batch ...     3.33 (100.00%)
Maximum spatial batch extension              ...  15.22, 15.22, 15.22 au
Average spatial batch extension              ...   0.67,  0.67,  0.72 au

Time for grid setup =    0.052 sec

------------------------------
INITIAL GUESS: MODEL POTENTIAL
------------------------------
Loading Hartree-Fock densities                     ... done
Calculating cut-offs                               ... done
Setting up the integral package                    ... done
Initializing the effective Hamiltonian             ... done
Starting the Coulomb interaction                   ... done (   0.0 sec)
Reading the grid                                   ... done
Mapping shells                                     ... done
Starting the XC term evaluation                    ... done (   0.0 sec)
  promolecular density results
     # of electrons  =      9.000001927
     EX              =     -9.914469873
     EC              =     -0.296868576
     EX+EC           =    -10.211338449
Transforming the Hamiltonian                       ... done (   0.0 sec)
Diagonalizing the Hamiltonian                      ... done (   0.0 sec)
Back transforming the eigenvectors                 ... done (   0.0 sec)
Now organizing SCF variables                       ... done
                      ------------------
                      INITIAL GUESS DONE (   0.2 sec)
                      ------------------
--------------
SCF ITERATIONS
--------------
ITER       Energy         Delta-E        Max-DP      RMS-DP      [F,P]     Damp
               ***  Starting incremental Fock matrix formation  ***
  0    -99.7640518319   0.000000000000 0.00541991  0.00020260  0.0425592 0.7000
  1    -99.7656374050  -0.001585573074 0.00452109  0.00015941  0.0277910 0.7000
                               ***Turning on DIIS***
  2    -99.7667027459  -0.001065340903 0.01076414  0.00037152  0.0195130 0.0000
  3    -99.7692133588  -0.002510612882 0.00213432  0.00010284  0.0096082 0.0000
  4    -99.7692605087  -0.000047149950 0.00068707  0.00003779  0.0057383 0.0000
  5    -99.7692802578  -0.000019749033 0.00023059  0.00001091  0.0004769 0.0000
  6    -99.7692809025  -0.000000644717 0.00004701  0.00000200  0.0001964 0.0000
                 **** Energy Check signals convergence ****

               *****************************************************
               *                     SUCCESS                       *
               *           SCF CONVERGED AFTER   7 CYCLES          *
               *****************************************************


----------------
TOTAL SCF ENERGY
----------------

Total Energy       :          -99.76928093 Eh           -2714.86016 eV

Components:
Nuclear Repulsion  :            0.00000000 Eh               0.00000 eV
Electronic Energy  :          -99.76928093 Eh           -2714.86016 eV
One Electron Energy:         -139.12045853 Eh           -3785.66014 eV
Two Electron Energy:           39.35117760 Eh            1070.79998 eV

Virial components:
Potential Energy   :         -199.11173530 Eh           -5418.10577 eV
Kinetic Energy     :           99.34245437 Eh            2703.24561 eV
Virial Ratio       :            2.00429652


DFT components:
N(Alpha)           :        5.000000518443 electrons
N(Beta)            :        4.000000513110 electrons
N(Total)           :        9.000001031552 electrons
E(X)               :      -10.076658074852 Eh       
E(C)               :       -0.292707544629 Eh       
E(XC)              :      -10.369365619481 Eh       
DFET-embed. en.    :        0.000000000000 Eh       

---------------
SCF CONVERGENCE
---------------

  Last Energy change         ...   -3.1887e-08  Tolerance :   1.0000e-06
  Last MAX-Density change    ...    5.3653e-06  Tolerance :   1.0000e-05
  Last RMS-Density change    ...    3.1226e-07  Tolerance :   1.0000e-06
  Last DIIS Error            ...    7.4402e-06  Tolerance :   1.0000e-06

             **** THE GBW FILE WAS UPDATED (72_F.gbw) ****
             **** DENSITY FILE WAS UPDATED (72_F.scfp) ****
             **** ENERGY FILE WAS UPDATED (72_F.en.tmp) ****
----------------------
UHF SPIN CONTAMINATION
----------------------

Warning: in a DFT calculation there is little theoretical justification to 
         calculate <S**2> as in Hartree-Fock theory. We will do it anyways
         but you should keep in mind that the values have only limited relevance

Expectation value of <S**2>     :     0.751738
Ideal value S*(S+1) for S=0.5   :     0.750000
Deviation                       :     0.001738

             **** THE GBW FILE WAS UPDATED (72_F.gbw) ****
             **** DENSITY FILE WAS UPDATED (72_F.scfp) ****
----------------
ORBITAL ENERGIES
----------------
                 SPIN UP ORBITALS
  NO   OCC          E(Eh)            E(eV) 
   0   1.0000     -24.517334      -667.1506 
   1   1.0000      -1.154404       -31.4129 
   2   1.0000      -0.503162       -13.6917 
   3   1.0000      -0.411388       -11.1944 
   4   1.0000      -0.411388       -11.1944 
   5   0.0000       0.080851         2.2001 
   6   0.0000       0.111937         3.0460 
   7   0.0000       0.120239         3.2719 
   8   0.0000       0.120239         3.2719 
   9   0.0000       0.669685        18.2231 
  10   0.0000       0.674874        18.3643 
  11   0.0000       0.674874        18.3643 
  12   0.0000       0.691422        18.8145 
  13   0.0000       0.691422        18.8145 
  14   0.0000       0.834227        22.7005 
  15   0.0000       0.872089        23.7307 
  16   0.0000       0.872089        23.7307 
  17   0.0000       1.296755        35.2865 
  18   0.0000       2.393497        65.1304 
  19   0.0000       2.408710        65.5443 
  20   0.0000       2.408710        65.5443 
  21   0.0000       2.458751        66.9060 
  22   0.0000       2.458751        66.9060 
  23   0.0000       2.539090        69.0922 
  24   0.0000       2.543326        69.2074 
  25   0.0000       2.543326        69.2074 
  26   0.0000       2.557040        69.5806 
  27   0.0000       2.557040        69.5806 
  28   0.0000       2.581044        70.2338 
  29   0.0000       2.581044        70.2338 
  30   0.0000       4.455424       121.2382 
  31   0.0000       4.533199       123.3546 
  32   0.0000       4.533199       123.3546 
  33   0.0000       8.159406       222.0287 
  34   0.0000       8.169188       222.2949 
  35   0.0000       8.169188       222.2949 
  36   0.0000       8.199024       223.1068 
  37   0.0000       8.199024       223.1068 
  38   0.0000       8.249668       224.4849 
  39   0.0000       8.249668       224.4849 
  40   0.0000       8.451437       229.9753 
  41   0.0000       8.476425       230.6552 
  42   0.0000       8.476425       230.6552 
  43   0.0000       8.551676       232.7029 
  44   0.0000       8.551676       232.7029 
  45   0.0000       9.658181       262.8125 

                 SPIN DOWN ORBITALS
  NO   OCC          E(Eh)            E(eV) 
   0   1.0000     -24.486549      -666.3129 
   1   1.0000      -1.073962       -29.2240 
   2   1.0000      -0.385325       -10.4852 
   3   1.0000      -0.385325       -10.4852 
   4   0.0000      -0.323090        -8.7917 
   5   0.0000       0.090225         2.4552 
   6   0.0000       0.122039         3.3208 
   7   0.0000       0.122039         3.3208 
   8   0.0000       0.131544         3.5795 
   9   0.0000       0.691462        18.8156 
  10   0.0000       0.691462        18.8156 
  11   0.0000       0.694265        18.8919 
  12   0.0000       0.694265        18.8919 
  13   0.0000       0.698204        18.9991 
  14   0.0000       0.883583        24.0435 
  15   0.0000       0.883583        24.0435 
  16   0.0000       0.907699        24.6998 
  17   0.0000       1.340678        36.4817 
  18   0.0000       2.467218        67.1364 
  19   0.0000       2.467218        67.1364 
  20   0.0000       2.469796        67.2066 
  21   0.0000       2.469796        67.2066 
  22   0.0000       2.487735        67.6947 
  23   0.0000       2.577900        70.1482 
  24   0.0000       2.577900        70.1482 
  25   0.0000       2.579817        70.2004 
  26   0.0000       2.579817        70.2004 
  27   0.0000       2.587635        70.4131 
  28   0.0000       2.587635        70.4131 
  29   0.0000       2.590682        70.4960 
  30   0.0000       4.573394       124.4484 
  31   0.0000       4.573394       124.4484 
  32   0.0000       4.601592       125.2157 
  33   0.0000       8.255963       224.6562 
  34   0.0000       8.255963       224.6562 
  35   0.0000       8.258657       224.7295 
  36   0.0000       8.263175       224.8524 
  37   0.0000       8.263175       224.8524 
  38   0.0000       8.290371       225.5925 
  39   0.0000       8.290371       225.5925 
  40   0.0000       8.604773       234.1478 
  41   0.0000       8.604773       234.1478 
  42   0.0000       8.621732       234.6093 
  43   0.0000       8.621733       234.6093 
  44   0.0000       8.637191       235.0299 
  45   0.0000       9.729733       264.7595 

                    ********************************
                    * MULLIKEN POPULATION ANALYSIS *
                    ********************************

--------------------------------------------
MULLIKEN ATOMIC CHARGES AND SPIN POPULATIONS
--------------------------------------------
   0 F :    0.000000    1.000000
Sum of atomic charges         :    0.0000000
Sum of atomic spin populations:    1.0000000

-----------------------------------------------------
MULLIKEN REDUCED ORBITAL CHARGES AND SPIN POPULATIONS
-----------------------------------------------------
CHARGE
  0 F s       :     3.999531  s :     3.999531
      pz      :     1.998125  p :     4.999775
      px      :     1.001908
      py      :     1.999742
      dz2     :     0.000116  d :     0.000469
      dxz     :     0.000003
      dyz     :     0.000000
      dx2y2   :     0.000350
      dxy     :     0.000000
      f0      :     0.000025  f :     0.000225
      f+1     :     0.000034
      f-1     :     0.000004
      f+2     :     0.000042
      f-2     :     0.000000
      f+3     :     0.000056
      f-3     :     0.000063

SPIN
  0 F s       :    -0.000265  s :    -0.000265
      pz      :     0.001747  p :     0.999790
      px      :     0.997914
      py      :     0.000130
      dz2     :     0.000066  d :     0.000265
      dxz     :     0.000001
      dyz     :     0.000000
      dx2y2   :     0.000198
      dxy     :     0.000000
      f0      :     0.000023  f :     0.000210
      f+1     :     0.000034
      f-1     :     0.000004
      f+2     :     0.000038
      f-2     :     0.000000
      f+3     :     0.000056
      f-3     :     0.000056


                     *******************************
                     * LOEWDIN POPULATION ANALYSIS *
                     *******************************

-------------------------------------------
LOEWDIN ATOMIC CHARGES AND SPIN POPULATIONS
-------------------------------------------
   0 F :    0.000000    1.000000

----------------------------------------------------
LOEWDIN REDUCED ORBITAL CHARGES AND SPIN POPULATIONS
----------------------------------------------------
CHARGE
  0 F s       :     3.999531  s :     3.999531
      pz      :     1.998125  p :     4.999775
      px      :     1.001908
      py      :     1.999742
      dz2     :     0.000116  d :     0.000469
      dxz     :     0.000003
      dyz     :     0.000000
      dx2y2   :     0.000350
      dxy     :     0.000000
      f0      :     0.000025  f :     0.000225
      f+1     :     0.000034
      f-1     :     0.000004
      f+2     :     0.000042
      f-2     :     0.000000
      f+3     :     0.000056
      f-3     :     0.000063

SPIN
  0 F s       :    -0.000265  s :    -0.000265
      pz      :     0.001747  p :     0.999790
      px      :     0.997914
      py      :     0.000130
      dz2     :     0.000066  d :     0.000265
      dxz     :     0.000001
      dyz     :     0.000000
      dx2y2   :     0.000198
      dxy     :     0.000000
      f0      :     0.000023  f :     0.000210
      f+1     :     0.000034
      f-1     :     0.000004
      f+2     :     0.000038
      f-2     :     0.000000
      f+3     :     0.000056
      f-3     :     0.000056


                      *****************************
                      * MAYER POPULATION ANALYSIS *
                      *****************************

  NA   - Mulliken gross atomic population
  ZA   - Total nuclear charge
  QA   - Mulliken gross atomic charge
  VA   - Mayer's total valence
  BVA  - Mayer's bonded valence
  FA   - Mayer's free valence

  ATOM       NA         ZA         QA         VA         BVA        FA
  0 F      9.0000     9.0000     0.0000     1.0035     0.0000     1.0035

  Mayer bond orders larger than 0.100000


-------
TIMINGS
-------

Total SCF time: 0 days 0 hours 0 min 1 sec 

Total time                  ....       1.068 sec
Sum of individual times     ....       0.976 sec  ( 91.4%)

Fock matrix formation       ....       0.790 sec  ( 74.0%)
  Split-RI-J                ....       0.626 sec  ( 79.3% of F)
  XC integration            ....       0.130 sec  ( 16.5% of F)
    Basis function eval.    ....       0.003 sec  (  2.4% of XC)
    Density eval.           ....       0.005 sec  (  4.1% of XC)
    XC-Functional eval.     ....       0.005 sec  (  3.7% of XC)
    XC-Potential eval.      ....       0.009 sec  (  7.0% of XC)
Diagonalization             ....       0.007 sec  (  0.6%)
Density matrix formation    ....       0.002 sec  (  0.2%)
Population analysis         ....       0.003 sec  (  0.3%)
Initial guess               ....       0.118 sec  ( 11.0%)
Orbital Transformation      ....       0.000 sec  (  0.0%)
Orbital Orthonormalization  ....       0.000 sec  (  0.0%)
DIIS solution               ....       0.004 sec  (  0.4%)
Grid generation             ....       0.052 sec  (  4.9%)


-------------------------------------------------------------------------------
                          DFT DISPERSION CORRECTION                            
                                                                               
                              DFTD3 V3.1  Rev 1                                
                          USING Becke-Johnson damping                          
-------------------------------------------------------------------------------
The TPSS functional is recognized
Active option DFTDOPT                   ...         4   

molecular C6(AA) [au] = 9.639969 


            DFT-D V3
 parameters
 s6 scaling factor         :     1.0000 
 a1 scaling factor         :     0.4535 
 s8 scaling factor         :     1.9435 
 a2 scaling factor         :     4.4752 
 ad hoc parameters k1-k3   :    16.0000     1.3333    -4.0000 

 Edisp/kcal,au: -0.000000000000  -0.000000000000 
 E6   /kcal   :  -0.000000000 
 E8   /kcal   :  -0.000000000 
 % E8         :          -nan 

-------------------------   ----------------
Dispersion correction            0.000000000
-------------------------   ----------------


-------------------------   --------------------
FINAL SINGLE POINT ENERGY       -99.769280934371
-------------------------   --------------------


                            ***************************************
                            *     ORCA property calculations      *
                            ***************************************

                                    ---------------------
                                    Active property flags
                                    ---------------------
   (+) Dipole Moment


------------------------------------------------------------------------------
                       ORCA ELECTRIC PROPERTIES CALCULATION
------------------------------------------------------------------------------

Dipole Moment Calculation                       ... on
Quadrupole Moment Calculation                   ... off
Polarizability Calculation                      ... off
GBWName                                         ... 72_F.gbw
Electron density file                           ... 72_F.scfp
The origin for moment calculation is the CENTER OF MASS  = ( 0.000000,  0.000000  0.000000)

-------------
DIPOLE MOMENT
-------------
                                X             Y             Z
Electronic contribution:     -0.00000      -0.00000       0.00000
Nuclear contribution   :      0.00000       0.00000       0.00000
                        -----------------------------------------
Total Dipole Moment    :     -0.00000      -0.00000       0.00000
                        -----------------------------------------
Magnitude (a.u.)       :      0.00000
Magnitude (Debye)      :      0.00000



--------------------
Rotational spectrum 
--------------------
 
Rotational constants in cm-1:     0.000000     0.000000     0.000000 
Rotational constants in MHz :     0.000000     0.000000     0.000000 

 Dipole components along the rotational axes: 
x,y,z [a.u.] :    -0.000000    -0.000000     0.000000 
x,y,z [Debye]:    -0.000000    -0.000000     0.000000 

 

Timings for individual modules:

Sum of individual times         ...        2.018 sec (=   0.034 min)
GTO integral calculation        ...        0.597 sec (=   0.010 min)  29.6 %
SCF iterations                  ...        1.421 sec (=   0.024 min)  70.4 %
                             ****ORCA TERMINATED NORMALLY****
TOTAL RUN TIME: 0 days 0 hours 0 minutes 2 seconds 499 msec
