
                                 *****************
                                 * O   R   C   A *
                                 *****************

           --- An Ab Initio, DFT and Semiempirical electronic structure package ---

                  #######################################################
                  #                        -***-                        #
                  #          Department of theory and spectroscopy      #
                  #               Directorship: Frank Neese             #
                  #        Max Planck Institute fuer Kohlenforschung    #
                  #                Kaiser Wilhelm Platz 1               #
                  #                 D-45470 Muelheim/Ruhr               #
                  #                      Germany                        #
                  #                                                     #
                  #                  All rights reserved                #
                  #                        -***-                        #
                  #######################################################


                         Program Version 4.2.0 -  RELEASE  -


 With contributions from (in alphabetic order):
   Daniel Aravena         : Magnetic Suceptibility
   Michael Atanasov       : Ab Initio Ligand Field Theory (pilot matlab implementation)
   Alexander A. Auer      : GIAO ZORA, VPT2
   Ute Becker             : Parallelization
   Giovanni Bistoni       : ED, misc. LED, open-shell LED, HFLED
   Martin Brehm           : Molecular dynamics
   Dmytro Bykov           : SCF Hessian
   Vijay G. Chilkuri      : MRCI spin determinant printing, contributions to CSF-ICE
   Dipayan Datta          : RHF DLPNO-CCSD density
   Achintya Kumar Dutta   : EOM-CC, STEOM-CC
   Dmitry Ganyushin       : Spin-Orbit,Spin-Spin,Magnetic field MRCI
   Miquel Garcia          : C-PCM Hessian, Gaussian charge scheme
   Yang Guo               : DLPNO-NEVPT2, CIM, IAO-localization
   Andreas Hansen         : Spin unrestricted coupled pair/coupled cluster methods
   Benjamin Helmich-Paris : CASSCF linear response (MC-RPA)
   Lee Huntington         : MR-EOM, pCC
   Robert Izsak           : Overlap fitted RIJCOSX, COSX-SCS-MP3, EOM
   Christian Kollmar      : KDIIS, OOCD, Brueckner-CCSD(T), CCSD density
   Simone Kossmann        : Meta GGA functionals, TD-DFT gradient, OOMP2, MP2 Hessian
   Martin Krupicka        : AUTO-CI
   Lucas Lang             : DCDCAS
   Dagmar Lenk            : GEPOL surface, SMD
   Dimitrios Liakos       : Extrapolation schemes; Compound Job, initial MDCI parallelization
   Dimitrios Manganas     : Further ROCIS development; embedding schemes
   Dimitrios Pantazis     : SARC Basis sets
   Taras Petrenko         : DFT Hessian,TD-DFT gradient, ASA, ECA, R-Raman, ABS, FL, XAS/XES, NRVS
   Peter Pinski           : DLPNO-MP2, DLPNO-MP2 Gradient
   Christoph Reimann      : Effective Core Potentials
   Marius Retegan         : Local ZFS, SOC
   Christoph Riplinger    : Optimizer, TS searches, QM/MM, DLPNO-CCSD(T), (RO)-DLPNO pert. Triples
   Tobias Risthaus        : Range-separated hybrids, TD-DFT gradient, RPA, STAB
   Michael Roemelt        : Original ROCIS implementation
   Masaaki Saitow         : Open-shell DLPNO-CCSD energy and density
   Barbara Sandhoefer     : DKH picture change effects
   Avijit Sen             : IP-ROCIS
   Kantharuban Sivalingam : CASSCF convergence, NEVPT2, FIC-MRCI
   Bernardo de Souza      : ESD, SOC TD-DFT
   Georgi Stoychev        : AutoAux, RI-MP2 NMR
   Willem Van den Heuvel  : Paramagnetic NMR
   Boris Wezisla          : Elementary symmetry handling
   Frank Wennmohs         : Technical directorship


 We gratefully acknowledge several colleagues who have allowed us to
 interface, adapt or use parts of their codes:
   Stefan Grimme, W. Hujo, H. Kruse,             : VdW corrections, initial TS optimization,
                  C. Bannwarth                     DFT functionals, gCP, sTDA/sTD-DF
   Ed Valeev, F. Pavosevic, A. Kumar             : LibInt (2-el integral package), F12 methods
   Garnet Chan, S. Sharma, J. Yang, R. Olivares  : DMRG
   Ulf Ekstrom                                   : XCFun DFT Library
   Mihaly Kallay                                 : mrcc  (arbitrary order and MRCC methods)
   Andreas Klamt, Michael Diedenhofen            : otool_cosmo (COSMO solvation model)
   Jiri Pittner, Ondrej Demel                    : Mk-CCSD
   Frank Weinhold                                : gennbo (NPA and NBO analysis)
   Christopher J. Cramer and Donald G. Truhlar   : smd solvation model
   Lars Goerigk                                  : TD-DFT with DH, B97 family of functionals
   V. Asgeirsson, H. Jonsson                     : NEB implementation
   FAccTs GmbH                                   : IRC, NEB, NEB-TS, Multilevel, MM, QM/MM, CI optimization
   S Lehtola, MJT Oliveira, MAL Marques          : LibXC Library


 Your calculation uses the libint2 library for the computation of 2-el integrals
 For citations please refer to: http://libint.valeyev.net

 Your ORCA version has been built with support for libXC version: 4.2.3
 For citations please refer to: https://tddft.org/programs/libxc/

 This ORCA versions uses:
   CBLAS   interface :  Fast vector & matrix operations
   LAPACKE interface :  Fast linear algebra routines
   SCALAPACK package :  Parallel linear algebra routines


Your calculation utilizes the atom-pairwise dispersion correction
with the Becke-Johnson damping scheme (D3BJ)
Cite in your paper:
S.Grimme, S.Ehrlich, L.Goerigk, J Comput Chem, (2011), 32, 1456–1465 
S.Grimme, J.Antony, S.Ehrlich and H.Krieg, J.Chem.Phys., 132, (2010), 154104 
   

----- Orbital basis set information -----
Your calculation utilizes the basis: aug-cc-pVTZ 
    H, B-Ne : Obtained from the ccRepo (grant-hill.group.shef.ac.uk/ccrepo) Feb. 2017
              R. A. Kendall, T. H. Dunning, Jr., R. J. Harrison, J. Chem. Phys. 96, 6796 (1992)
         He : Obtained from the ccRepo (grant-hill.group.shef.ac.uk/ccrepo) Feb. 2017
              D. E. Woon, T. H. Dunning, Jr., J. Chem. Phys. 100, 2975 (1994)
  Li-Be, Na : Obtained from the ccRepo (grant-hill.group.shef.ac.uk/ccrepo) Feb. 2017
              B. P. Prascher, D. E. Woon, K. A. Peterson, T. H. Dunning, Jr., A. K. Wilson, Theor. Chem. Acc. 128, 69 (2011)
         Mg : Obtained from the Peterson Research Group Website (tyr0.chem.wsu.edu/~kipeters) Feb. 2017
              B. P. Prascher, D. E. Woon, K. A. Peterson, T. H. Dunning, Jr., A. K. Wilson, Theor. Chem. Acc. 128, 69 (2011)
      Al-Ar : Obtained from the ccRepo (grant-hill.group.shef.ac.uk/ccrepo) Feb. 2017
              D. E. Woon, T. H. Dunning, Jr., J. Chem. Phys. 98, 1358 (1993)
      Sc-Zn : Obtained from the ccRepo (grant-hill.group.shef.ac.uk/ccrepo) Feb. 2017
              N. B. Balabanov, K. A. Peterson, J. Chem. Phys. 123, 064107 (2005)
              N. B. Balabanov, K. A. Peterson, J. Chem. Phys. 125, 074110 (2006)
      Ga-Kr : Obtained from the ccRepo (grant-hill.group.shef.ac.uk/ccrepo) Feb. 2017
              A. K. Wilson, D. E. Woon, K. A. Peterson, T. H. Dunning, Jr., J. Chem. Phys. 110, 7667 (1999)
     Ag, Au : Obtained from the Peterson Research Group Website (tyr0.chem.wsu.edu/~kipeters) Feb. 2017
              K. A. Peterson, C. Puzzarini, Theor. Chem. Acc. 114, 283 (2005)

----- AuxJ basis set information -----
Your calculation utilizes the auxiliary basis: def2/J
   F. Weigend, Phys. Chem. Chem. Phys. 8, 1057 (2006).

================================================================================
                                        WARNINGS
                       Please study these warnings very carefully!
================================================================================


WARNING: your system is open-shell and RHF/RKS was chosen
  ===> : WILL SWITCH to UHF/UKS


INFO   : the flag for use of LIBINT has been found!

================================================================================
                                       INPUT FILE
================================================================================
NAME = 74_Br.in
|  1> #
|  2> # 74_Br tpss/aug-cc-pvtz
|  3> #
|  4> ! tpss d3bj aug-cc-pvtz def2/j grid4 nofinalgrid
|  5> 
|  6> *xyz 0 2
|  7> Br 0.0 0.0 0.0
|  8> *
|  9> 
| 10> %pal
| 11> nprocs 24
| 12> end
| 13> 
| 14> 
| 15>                          ****END OF INPUT****
================================================================================

                       ****************************
                       * Single Point Calculation *
                       ****************************

---------------------------------
CARTESIAN COORDINATES (ANGSTROEM)
---------------------------------
  Br     0.000000    0.000000    0.000000

----------------------------
CARTESIAN COORDINATES (A.U.)
----------------------------
  NO LB      ZA    FRAG     MASS         X           Y           Z
   0 Br   35.0000    0    79.900    0.000000    0.000000    0.000000

--------------------------------
INTERNAL COORDINATES (ANGSTROEM)
--------------------------------
 Br     0   0   0     0.000000000000     0.00000000     0.00000000

---------------------------
INTERNAL COORDINATES (A.U.)
---------------------------
 Br     0   0   0     0.000000000000     0.00000000     0.00000000

---------------------
BASIS SET INFORMATION
---------------------
There are 1 groups of distinct atoms

 Group   1 Type Br  : 75s36p10d2f contracted to 7s6p4d2f pattern {18181818111/111111111/7111/11}

Atom   0Br   basis set group =>   1
---------------------------------
AUXILIARY/J BASIS SET INFORMATION
---------------------------------
There are 1 groups of distinct atoms

 Group   1 Type Br  : 19s5p5d3f1g contracted to 8s4p3d2f1g pattern {121111111/2111/311/21/1}

Atom   0Br   basis set group =>   1


           ************************************************************
           *        Program running with 24 parallel MPI-processes    *
           *              working on a common directory               *
           ************************************************************
------------------------------------------------------------------------------
                           ORCA GTO INTEGRAL CALCULATION
                           -- RI-GTO INTEGRALS CHOSEN --
------------------------------------------------------------------------------

                         BASIS SET STATISTICS AND STARTUP INFO

Gaussian basis set:
 # of primitive gaussian shells          ...  123
 # of primitive gaussian functions       ...  247
 # of contracted shells                  ...   19
 # of contracted basis functions         ...   59
 Highest angular momentum                ...    3
 Maximum contraction depth               ...   18
Auxiliary gaussian basis set:
 # of primitive gaussian shells          ...   33
 # of primitive gaussian functions       ...   89
 # of contracted shells                  ...   18
 # of contracted aux-basis functions     ...   58
 Highest angular momentum                ...    4
 Maximum contraction depth               ...   12
Ratio of auxiliary to basis functions    ...  0.98
Integral package used                  ... LIBINT
 One Electron integrals                  ... done
 Ordering auxiliary basis shells         ... done
 Integral threshhold             Thresh  ...  1.000e-10
 Primitive cut-off               TCut    ...  1.000e-11
 Pre-screening matrix                    ... done
 Shell pair data                         ... 
 Ordering of the shell pairs             ... done (   0.000 sec) 190 of 190 pairs
 Determination of significant pairs      ... done (   0.000 sec)
 Creation of shell pair data             ... done (   0.000 sec)
 Storage of shell pair data              ... done (   0.006 sec)
 Shell pair data done in (   0.007 sec)
 Computing two index integrals           ... done
 Cholesky decomposition of the V-matrix  ... done


Timings:
 Total evaluation time                   ...   0.708 sec (  0.012 min)
 One electron matrix time                ...   0.011 sec (  0.000 min) =  1.6%
 Schwartz matrix evaluation time         ...   0.668 sec (  0.011 min) = 94.3%
 Two index repulsion integral time       ...   0.000 sec (  0.000 min) =  0.1%
 Cholesky decomposition of V             ...   0.001 sec (  0.000 min) =  0.1%
 Three index repulsion integral time     ...   0.000 sec (  0.000 min) =  0.0%



           ************************************************************
           *        Program running with 24 parallel MPI-processes    *
           *              working on a common directory               *
           ************************************************************
-------------------------------------------------------------------------------
                                 ORCA SCF
-------------------------------------------------------------------------------

------------
SCF SETTINGS
------------
Hamiltonian:
 Density Functional     Method          .... DFT(GTOs)
 Exchange Functional    Exchange        .... TPSS
 Correlation Functional Correlation     .... TPSS
 LDA part of GGA corr.  LDAOpt          .... PW91-LDA
 Gradients option       PostSCFGGA      .... off
   Density functional embedding theory  .... OFF
   NL short-range parameter             ....  5.000000
 RI-approximation to the Coulomb term is turned on
   Number of auxiliary basis functions  .... 58


General Settings:
 Integral files         IntName         .... 74_Br
 Hartree-Fock type      HFTyp           .... UHF
 Total Charge           Charge          ....    0
 Multiplicity           Mult            ....    2
 Number of Electrons    NEL             ....   35
 Basis Dimension        Dim             ....   59
 Nuclear Repulsion      ENuc            ....      0.0000000000 Eh

Convergence Acceleration:
 DIIS                   CNVDIIS         .... on
   Start iteration      DIISMaxIt       ....    12
   Startup error        DIISStart       ....  0.200000
   # of expansion vecs  DIISMaxEq       ....     5
   Bias factor          DIISBfac        ....   1.050
   Max. coefficient     DIISMaxC        ....  10.000
 Newton-Raphson         CNVNR           .... off
 SOSCF                  CNVSOSCF        .... off
 Level Shifting         CNVShift        .... on
   Level shift para.    LevelShift      ....    0.2500
   Turn off err/grad.   ShiftErr        ....    0.0010
 Zerner damping         CNVZerner       .... off
 Static damping         CNVDamp         .... on
   Fraction old density DampFac         ....    0.7000
   Max. Damping (<1)    DampMax         ....    0.9800
   Min. Damping (>=0)   DampMin         ....    0.0000
   Turn off err/grad.   DampErr         ....    0.1000
 Fernandez-Rico         CNVRico         .... off

SCF Procedure:
 Maximum # iterations   MaxIter         ....   125
 SCF integral mode      SCFMode         .... Direct
   Integral package                     .... LIBINT
 Reset frequency        DirectResetFreq ....    20
 Integral Threshold     Thresh          ....  1.000e-10 Eh
 Primitive CutOff       TCut            ....  1.000e-11 Eh

Convergence Tolerance:
 Convergence Check Mode ConvCheckMode   .... Total+1el-Energy
 Convergence forced     ConvForced      .... 0
 Energy Change          TolE            ....  1.000e-06 Eh
 1-El. energy change                    ....  1.000e-03 Eh
 DIIS Error             TolErr          ....  1.000e-06


Diagonalization of the overlap matrix:
Smallest eigenvalue                        ... 7.625e-03
Time for diagonalization                   ...    0.002 sec
Threshold for overlap eigenvalues          ... 1.000e-08
Number of eigenvalues below threshold      ... 0
Time for construction of square roots      ...    0.001 sec
Total time needed                          ...    0.004 sec

-------------------
DFT GRID GENERATION
-------------------

General Integration Accuracy     IntAcc      ...  4.670
Radial Grid Type                 RadialGrid  ... Gauss-Chebyshev
Angular Grid (max. acc.)         AngularGrid ... Lebedev-302
Angular grid pruning method      GridPruning ... 3 (G Style)
Weight generation scheme         WeightScheme... Becke
Basis function cutoff            BFCut       ...    1.0000e-10
Integration weight cutoff        WCut        ...    1.0000e-14
Grids for H and He will be reduced by one unit

# of grid points (after initial pruning)     ...   9616 (   0.0 sec)
# of grid points (after weights+screening)   ...   9616 (   0.0 sec)
Grid point division into batches done        ...    0.1 sec
Reduced shell lists constructed in    0.1 sec

Total number of grid points                  ...     9616
Total number of batches                      ...      151
Average number of points per batch           ...       63
Average number of grid points per atom       ...     9616
Average number of shells per batch           ...     4.62 (24.34%)
Average number of basis functions per batch  ...    12.88 (21.82%)
Average number of large shells per batch     ...     3.62 (78.38%)
Average number of large basis fcns per batch ...    10.62 (82.52%)
Maximum spatial batch extension              ...  20.96, 16.71, 16.71 au
Average spatial batch extension              ...   0.72,  0.66,  0.65 au

Time for grid setup =    0.121 sec

------------------------------
INITIAL GUESS: MODEL POTENTIAL
------------------------------
Loading Hartree-Fock densities                     ... done
Calculating cut-offs                               ... done
Setting up the integral package                    ... done
Initializing the effective Hamiltonian             ... done
Starting the Coulomb interaction                   ... done (   0.0 sec)
Reading the grid                                   ... done
Mapping shells                                     ... done
Starting the XC term evaluation                    ... done (   0.0 sec)
  promolecular density results
     # of electrons  =     34.999995890
     EX              =    -89.238293731
     EC              =     -1.701081602
     EX+EC           =    -90.939375332
Transforming the Hamiltonian                       ... done (   0.0 sec)
Diagonalizing the Hamiltonian                      ... done (   0.0 sec)
Back transforming the eigenvectors                 ... done (   0.0 sec)
Now organizing SCF variables                       ... done
                      ------------------
                      INITIAL GUESS DONE (   0.2 sec)
                      ------------------
--------------
SCF ITERATIONS
--------------
ITER       Energy         Delta-E        Max-DP      RMS-DP      [F,P]     Damp
               ***  Starting incremental Fock matrix formation  ***
  0  -2574.0596372793   0.000000000000 0.00947832  0.00030327  0.0403152 0.7000
  1  -2574.0611548041  -0.001517524774 0.00686145  0.00021924  0.0216930 0.7000
                               ***Turning on DIIS***
  2  -2574.0621676313  -0.001012827273 0.01861295  0.00050572  0.0125571 0.0000
  3  -2574.0644334894  -0.002265858069 0.00240910  0.00009723  0.0069831 0.0000
  4  -2574.0644912574  -0.000057768017 0.00071474  0.00002649  0.0017761 0.0000
  5  -2574.0644984674  -0.000007210020 0.00054716  0.00001198  0.0002260 0.0000
                 **** Energy Check signals convergence ****

               *****************************************************
               *                     SUCCESS                       *
               *           SCF CONVERGED AFTER   6 CYCLES          *
               *****************************************************


----------------
TOTAL SCF ENERGY
----------------

Total Energy       :        -2574.06449928 Eh          -70043.85599 eV

Components:
Nuclear Repulsion  :            0.00000000 Eh               0.00000 eV
Electronic Energy  :        -2574.06449928 Eh          -70043.85599 eV
One Electron Energy:        -3580.62804088 Eh          -97433.84243 eV
Two Electron Energy:         1006.56354161 Eh           27389.98645 eV

Virial components:
Potential Energy   :        -5144.16907622 Eh         -139979.95701 eV
Kinetic Energy     :         2570.10457695 Eh           69936.10102 eV
Virial Ratio       :            2.00154076


DFT components:
N(Alpha)           :       17.999999781154 electrons
N(Beta)            :       16.999999824451 electrons
N(Total)           :       34.999999605605 electrons
E(X)               :      -89.458225250128 Eh       
E(C)               :       -1.699643532817 Eh       
E(XC)              :      -91.157868782945 Eh       
DFET-embed. en.    :        0.000000000000 Eh       

---------------
SCF CONVERGENCE
---------------

  Last Energy change         ...   -8.0838e-07  Tolerance :   1.0000e-06
  Last MAX-Density change    ...    3.1004e-05  Tolerance :   1.0000e-05
  Last RMS-Density change    ...    9.3508e-07  Tolerance :   1.0000e-06
  Last DIIS Error            ...    1.6702e-05  Tolerance :   1.0000e-06

             **** THE GBW FILE WAS UPDATED (74_Br.gbw) ****
             **** DENSITY FILE WAS UPDATED (74_Br.scfp) ****
             **** ENERGY FILE WAS UPDATED (74_Br.en.tmp) ****
----------------------
UHF SPIN CONTAMINATION
----------------------

Warning: in a DFT calculation there is little theoretical justification to 
         calculate <S**2> as in Hartree-Fock theory. We will do it anyways
         but you should keep in mind that the values have only limited relevance

Expectation value of <S**2>     :     0.753100
Ideal value S*(S+1) for S=0.5   :     0.750000
Deviation                       :     0.003100

             **** THE GBW FILE WAS UPDATED (74_Br.gbw) ****
             **** DENSITY FILE WAS UPDATED (74_Br.scfp) ****
----------------
ORBITAL ENERGIES
----------------
                 SPIN UP ORBITALS
  NO   OCC          E(Eh)            E(eV) 
   0   1.0000    -481.776177    -13109.7963 
   1   1.0000     -61.992695     -1686.9070 
   2   1.0000     -55.828883     -1519.1811 
   3   1.0000     -55.823508     -1519.0349 
   4   1.0000     -55.823508     -1519.0349 
   5   1.0000      -8.519051      -231.8152 
   6   1.0000      -6.369900      -173.3338 
   7   1.0000      -6.348264      -172.7451 
   8   1.0000      -6.348264      -172.7451 
   9   1.0000      -2.535577       -68.9966 
  10   1.0000      -2.530132       -68.8484 
  11   1.0000      -2.530132       -68.8484 
  12   1.0000      -2.513759       -68.4029 
  13   1.0000      -2.513759       -68.4029 
  14   1.0000      -0.740408       -20.1475 
  15   1.0000      -0.341118        -9.2823 
  16   1.0000      -0.292228        -7.9519 
  17   1.0000      -0.292228        -7.9519 
  18   0.0000       0.008700         0.2367 
  19   0.0000       0.039897         1.0856 
  20   0.0000       0.046251         1.2585 
  21   0.0000       0.046251         1.2586 
  22   0.0000       0.130355         3.5471 
  23   0.0000       0.134661         3.6643 
  24   0.0000       0.134662         3.6643 
  25   0.0000       0.150340         4.0910 
  26   0.0000       0.150340         4.0910 
  27   0.0000       0.342656         9.3241 
  28   0.0000       0.362444         9.8626 
  29   0.0000       0.362444         9.8626 
  30   0.0000       0.466957        12.7065 
  31   0.0000       0.523154        14.2358 
  32   0.0000       0.530558        14.4372 
  33   0.0000       0.530558        14.4372 
  34   0.0000       0.557068        15.1586 
  35   0.0000       0.557068        15.1586 
  36   0.0000       0.714814        19.4511 
  37   0.0000       0.717535        19.5251 
  38   0.0000       0.717535        19.5251 
  39   0.0000       0.726972        19.7819 
  40   0.0000       0.726972        19.7819 
  41   0.0000       0.744031        20.2461 
  42   0.0000       0.744031        20.2461 
  43   0.0000       1.713990        46.6401 
  44   0.0000       1.750302        47.6281 
  45   0.0000       1.750302        47.6281 
  46   0.0000       1.865187        50.7543 
  47   0.0000       1.873978        50.9935 
  48   0.0000       1.873978        50.9935 
  49   0.0000       1.903496        51.7967 
  50   0.0000       1.903496        51.7967 
  51   0.0000       1.917984        52.1910 
  52   0.0000       1.923172        52.3322 
  53   0.0000       1.923172        52.3322 
  54   0.0000       1.939313        52.7714 
  55   0.0000       1.939313        52.7714 
  56   0.0000       1.967400        53.5357 
  57   0.0000       1.967400        53.5357 
  58   0.0000       2.974847        80.9497 

                 SPIN DOWN ORBITALS
  NO   OCC          E(Eh)            E(eV) 
   0   1.0000    -481.774053    -13109.7385 
   1   1.0000     -61.992070     -1686.8900 
   2   1.0000     -55.825183     -1519.0805 
   3   1.0000     -55.822792     -1519.0154 
   4   1.0000     -55.822792     -1519.0154 
   5   1.0000      -8.516174      -231.7369 
   6   1.0000      -6.362856      -173.1421 
   7   1.0000      -6.346880      -172.7074 
   8   1.0000      -6.346880      -172.7074 
   9   1.0000      -2.527597       -68.7794 
  10   1.0000      -2.524202       -68.6870 
  11   1.0000      -2.524202       -68.6870 
  12   1.0000      -2.512796       -68.3766 
  13   1.0000      -2.512796       -68.3766 
  14   1.0000      -0.702062       -19.1041 
  15   1.0000      -0.279130        -7.5955 
  16   1.0000      -0.279130        -7.5955 
  17   0.0000      -0.262633        -7.1466 
  18   0.0000       0.015546         0.4230 
  19   0.0000       0.047834         1.3016 
  20   0.0000       0.047834         1.3016 
  21   0.0000       0.051253         1.3947 
  22   0.0000       0.151947         4.1347 
  23   0.0000       0.151948         4.1347 
  24   0.0000       0.153777         4.1845 
  25   0.0000       0.153777         4.1845 
  26   0.0000       0.157301         4.2804 
  27   0.0000       0.367009         9.9868 
  28   0.0000       0.367012         9.9869 
  29   0.0000       0.367012         9.9869 
  30   0.0000       0.482266        13.1231 
  31   0.0000       0.560514        15.2524 
  32   0.0000       0.560514        15.2524 
  33   0.0000       0.563179        15.3249 
  34   0.0000       0.563180        15.3249 
  35   0.0000       0.572700        15.5840 
  36   0.0000       0.743298        20.2262 
  37   0.0000       0.743298        20.2262 
  38   0.0000       0.743758        20.2387 
  39   0.0000       0.743759        20.2387 
  40   0.0000       0.746854        20.3229 
  41   0.0000       0.747503        20.3406 
  42   0.0000       0.747506        20.3407 
  43   0.0000       1.747610        47.5549 
  44   0.0000       1.759102        47.8676 
  45   0.0000       1.759102        47.8676 
  46   0.0000       1.905995        51.8648 
  47   0.0000       1.905995        51.8648 
  48   0.0000       1.907834        51.9148 
  49   0.0000       1.911007        52.0012 
  50   0.0000       1.911007        52.0012 
  51   0.0000       1.966355        53.5072 
  52   0.0000       1.966355        53.5072 
  53   0.0000       1.966401        53.5085 
  54   0.0000       1.966402        53.5085 
  55   0.0000       1.969980        53.6059 
  56   0.0000       1.972933        53.6862 
  57   0.0000       1.972933        53.6862 
  58   0.0000       2.988898        81.3320 

                    ********************************
                    * MULLIKEN POPULATION ANALYSIS *
                    ********************************

--------------------------------------------
MULLIKEN ATOMIC CHARGES AND SPIN POPULATIONS
--------------------------------------------
   0 Br:    0.000000    1.000000
Sum of atomic charges         :    0.0000000
Sum of atomic spin populations:    1.0000000

-----------------------------------------------------
MULLIKEN REDUCED ORBITAL CHARGES AND SPIN POPULATIONS
-----------------------------------------------------
CHARGE
  0 Brs       :     7.998821  s :     7.998821
      pz      :     5.094265  p :    16.998785
      px      :     5.910537
      py      :     5.993983
      dz2     :     2.000867  d :    10.001179
      dxz     :     2.000285
      dyz     :     2.000018
      dx2y2   :     2.000006
      dxy     :     2.000002
      f0      :     0.000413  f :     0.001215
      f+1     :     0.000345
      f-1     :     0.000292
      f+2     :     0.000079
      f-2     :     0.000079
      f+3     :     0.000003
      f-3     :     0.000003

SPIN
  0 Brs       :    -0.000934  s :    -0.000934
      pz      :     0.904811  p :     0.998837
      px      :     0.088726
      py      :     0.005300
      dz2     :     0.000688  d :     0.000934
      dxz     :     0.000226
      dyz     :     0.000014
      dx2y2   :     0.000005
      dxy     :     0.000001
      f0      :     0.000402  f :     0.001163
      f+1     :     0.000335
      f-1     :     0.000272
      f+2     :     0.000074
      f-2     :     0.000074
      f+3     :     0.000003
      f-3     :     0.000003


                     *******************************
                     * LOEWDIN POPULATION ANALYSIS *
                     *******************************

-------------------------------------------
LOEWDIN ATOMIC CHARGES AND SPIN POPULATIONS
-------------------------------------------
   0 Br:   -0.000000    1.000000

----------------------------------------------------
LOEWDIN REDUCED ORBITAL CHARGES AND SPIN POPULATIONS
----------------------------------------------------
CHARGE
  0 Brs       :     7.998821  s :     7.998821
      pz      :     5.094265  p :    16.998785
      px      :     5.910537
      py      :     5.993983
      dz2     :     2.000867  d :    10.001179
      dxz     :     2.000285
      dyz     :     2.000018
      dx2y2   :     2.000006
      dxy     :     2.000002
      f0      :     0.000413  f :     0.001215
      f+1     :     0.000345
      f-1     :     0.000292
      f+2     :     0.000079
      f-2     :     0.000079
      f+3     :     0.000003
      f-3     :     0.000003

SPIN
  0 Brs       :    -0.000934  s :    -0.000934
      pz      :     0.904811  p :     0.998837
      px      :     0.088726
      py      :     0.005300
      dz2     :     0.000688  d :     0.000934
      dxz     :     0.000226
      dyz     :     0.000014
      dx2y2   :     0.000005
      dxy     :     0.000001
      f0      :     0.000402  f :     0.001163
      f+1     :     0.000335
      f-1     :     0.000272
      f+2     :     0.000074
      f-2     :     0.000074
      f+3     :     0.000003
      f-3     :     0.000003


                      *****************************
                      * MAYER POPULATION ANALYSIS *
                      *****************************

  NA   - Mulliken gross atomic population
  ZA   - Total nuclear charge
  QA   - Mulliken gross atomic charge
  VA   - Mayer's total valence
  BVA  - Mayer's bonded valence
  FA   - Mayer's free valence

  ATOM       NA         ZA         QA         VA         BVA        FA
  0 Br    35.0000    35.0000    -0.0000     1.0062     0.0000     1.0062

  Mayer bond orders larger than 0.100000


-------
TIMINGS
-------

Total SCF time: 0 days 0 hours 0 min 1 sec 

Total time                  ....       1.206 sec
Sum of individual times     ....       1.101 sec  ( 91.3%)

Fock matrix formation       ....       0.862 sec  ( 71.4%)
  Split-RI-J                ....       0.641 sec  ( 74.4% of F)
  XC integration            ....       0.184 sec  ( 21.4% of F)
    Basis function eval.    ....       0.012 sec  (  6.5% of XC)
    Density eval.           ....       0.011 sec  (  5.9% of XC)
    XC-Functional eval.     ....       0.007 sec  (  3.7% of XC)
    XC-Potential eval.      ....       0.020 sec  ( 11.1% of XC)
Diagonalization             ....       0.008 sec  (  0.7%)
Density matrix formation    ....       0.003 sec  (  0.2%)
Population analysis         ....       0.003 sec  (  0.3%)
Initial guess               ....       0.097 sec  (  8.1%)
Orbital Transformation      ....       0.000 sec  (  0.0%)
Orbital Orthonormalization  ....       0.000 sec  (  0.0%)
DIIS solution               ....       0.007 sec  (  0.5%)
Grid generation             ....       0.121 sec  ( 10.0%)


-------------------------------------------------------------------------------
                          DFT DISPERSION CORRECTION                            
                                                                               
                              DFTD3 V3.1  Rev 1                                
                          USING Becke-Johnson damping                          
-------------------------------------------------------------------------------
The TPSS functional is recognized
Active option DFTDOPT                   ...         4   

molecular C6(AA) [au] = 167.168230 


            DFT-D V3
 parameters
 s6 scaling factor         :     1.0000 
 a1 scaling factor         :     0.4535 
 s8 scaling factor         :     1.9435 
 a2 scaling factor         :     4.4752 
 ad hoc parameters k1-k3   :    16.0000     1.3333    -4.0000 

 Edisp/kcal,au: -0.000000000000  -0.000000000000 
 E6   /kcal   :  -0.000000000 
 E8   /kcal   :  -0.000000000 
 % E8         :          -nan 

-------------------------   ----------------
Dispersion correction            0.000000000
-------------------------   ----------------


-------------------------   --------------------
FINAL SINGLE POINT ENERGY     -2574.064499275809
-------------------------   --------------------


                            ***************************************
                            *     ORCA property calculations      *
                            ***************************************

                                    ---------------------
                                    Active property flags
                                    ---------------------
   (+) Dipole Moment


------------------------------------------------------------------------------
                       ORCA ELECTRIC PROPERTIES CALCULATION
------------------------------------------------------------------------------

Dipole Moment Calculation                       ... on
Quadrupole Moment Calculation                   ... off
Polarizability Calculation                      ... off
GBWName                                         ... 74_Br.gbw
Electron density file                           ... 74_Br.scfp
The origin for moment calculation is the CENTER OF MASS  = ( 0.000000,  0.000000  0.000000)

-------------
DIPOLE MOMENT
-------------
                                X             Y             Z
Electronic contribution:      0.00000      -0.00000      -0.00000
Nuclear contribution   :      0.00000       0.00000       0.00000
                        -----------------------------------------
Total Dipole Moment    :      0.00000      -0.00000      -0.00000
                        -----------------------------------------
Magnitude (a.u.)       :      0.00000
Magnitude (Debye)      :      0.00000



--------------------
Rotational spectrum 
--------------------
 
Rotational constants in cm-1:     0.000000     0.000000     0.000000 
Rotational constants in MHz :     0.000000     0.000000     0.000000 

 Dipole components along the rotational axes: 
x,y,z [a.u.] :     0.000000    -0.000000    -0.000000 
x,y,z [Debye]:     0.000000    -0.000000    -0.000000 

 

Timings for individual modules:

Sum of individual times         ...        2.806 sec (=   0.047 min)
GTO integral calculation        ...        1.267 sec (=   0.021 min)  45.2 %
SCF iterations                  ...        1.539 sec (=   0.026 min)  54.8 %
                             ****ORCA TERMINATED NORMALLY****
TOTAL RUN TIME: 0 days 0 hours 0 minutes 3 seconds 378 msec
