
                                 *****************
                                 * O   R   C   A *
                                 *****************

           --- An Ab Initio, DFT and Semiempirical electronic structure package ---

                  #######################################################
                  #                        -***-                        #
                  #          Department of theory and spectroscopy      #
                  #               Directorship: Frank Neese             #
                  #        Max Planck Institute fuer Kohlenforschung    #
                  #                Kaiser Wilhelm Platz 1               #
                  #                 D-45470 Muelheim/Ruhr               #
                  #                      Germany                        #
                  #                                                     #
                  #                  All rights reserved                #
                  #                        -***-                        #
                  #######################################################


                         Program Version 4.2.0 -  RELEASE  -


 With contributions from (in alphabetic order):
   Daniel Aravena         : Magnetic Suceptibility
   Michael Atanasov       : Ab Initio Ligand Field Theory (pilot matlab implementation)
   Alexander A. Auer      : GIAO ZORA, VPT2
   Ute Becker             : Parallelization
   Giovanni Bistoni       : ED, misc. LED, open-shell LED, HFLED
   Martin Brehm           : Molecular dynamics
   Dmytro Bykov           : SCF Hessian
   Vijay G. Chilkuri      : MRCI spin determinant printing, contributions to CSF-ICE
   Dipayan Datta          : RHF DLPNO-CCSD density
   Achintya Kumar Dutta   : EOM-CC, STEOM-CC
   Dmitry Ganyushin       : Spin-Orbit,Spin-Spin,Magnetic field MRCI
   Miquel Garcia          : C-PCM Hessian, Gaussian charge scheme
   Yang Guo               : DLPNO-NEVPT2, CIM, IAO-localization
   Andreas Hansen         : Spin unrestricted coupled pair/coupled cluster methods
   Benjamin Helmich-Paris : CASSCF linear response (MC-RPA)
   Lee Huntington         : MR-EOM, pCC
   Robert Izsak           : Overlap fitted RIJCOSX, COSX-SCS-MP3, EOM
   Christian Kollmar      : KDIIS, OOCD, Brueckner-CCSD(T), CCSD density
   Simone Kossmann        : Meta GGA functionals, TD-DFT gradient, OOMP2, MP2 Hessian
   Martin Krupicka        : AUTO-CI
   Lucas Lang             : DCDCAS
   Dagmar Lenk            : GEPOL surface, SMD
   Dimitrios Liakos       : Extrapolation schemes; Compound Job, initial MDCI parallelization
   Dimitrios Manganas     : Further ROCIS development; embedding schemes
   Dimitrios Pantazis     : SARC Basis sets
   Taras Petrenko         : DFT Hessian,TD-DFT gradient, ASA, ECA, R-Raman, ABS, FL, XAS/XES, NRVS
   Peter Pinski           : DLPNO-MP2, DLPNO-MP2 Gradient
   Christoph Reimann      : Effective Core Potentials
   Marius Retegan         : Local ZFS, SOC
   Christoph Riplinger    : Optimizer, TS searches, QM/MM, DLPNO-CCSD(T), (RO)-DLPNO pert. Triples
   Tobias Risthaus        : Range-separated hybrids, TD-DFT gradient, RPA, STAB
   Michael Roemelt        : Original ROCIS implementation
   Masaaki Saitow         : Open-shell DLPNO-CCSD energy and density
   Barbara Sandhoefer     : DKH picture change effects
   Avijit Sen             : IP-ROCIS
   Kantharuban Sivalingam : CASSCF convergence, NEVPT2, FIC-MRCI
   Bernardo de Souza      : ESD, SOC TD-DFT
   Georgi Stoychev        : AutoAux, RI-MP2 NMR
   Willem Van den Heuvel  : Paramagnetic NMR
   Boris Wezisla          : Elementary symmetry handling
   Frank Wennmohs         : Technical directorship


 We gratefully acknowledge several colleagues who have allowed us to
 interface, adapt or use parts of their codes:
   Stefan Grimme, W. Hujo, H. Kruse,             : VdW corrections, initial TS optimization,
                  C. Bannwarth                     DFT functionals, gCP, sTDA/sTD-DF
   Ed Valeev, F. Pavosevic, A. Kumar             : LibInt (2-el integral package), F12 methods
   Garnet Chan, S. Sharma, J. Yang, R. Olivares  : DMRG
   Ulf Ekstrom                                   : XCFun DFT Library
   Mihaly Kallay                                 : mrcc  (arbitrary order and MRCC methods)
   Andreas Klamt, Michael Diedenhofen            : otool_cosmo (COSMO solvation model)
   Jiri Pittner, Ondrej Demel                    : Mk-CCSD
   Frank Weinhold                                : gennbo (NPA and NBO analysis)
   Christopher J. Cramer and Donald G. Truhlar   : smd solvation model
   Lars Goerigk                                  : TD-DFT with DH, B97 family of functionals
   V. Asgeirsson, H. Jonsson                     : NEB implementation
   FAccTs GmbH                                   : IRC, NEB, NEB-TS, Multilevel, MM, QM/MM, CI optimization
   S Lehtola, MJT Oliveira, MAL Marques          : LibXC Library


 Your calculation uses the libint2 library for the computation of 2-el integrals
 For citations please refer to: http://libint.valeyev.net

 Your ORCA version has been built with support for libXC version: 4.2.3
 For citations please refer to: https://tddft.org/programs/libxc/

 This ORCA versions uses:
   CBLAS   interface :  Fast vector & matrix operations
   LAPACKE interface :  Fast linear algebra routines
   SCALAPACK package :  Parallel linear algebra routines


Your calculation utilizes the atom-pairwise dispersion correction
with the Becke-Johnson damping scheme (D3BJ)
Cite in your paper:
S.Grimme, S.Ehrlich, L.Goerigk, J Comput Chem, (2011), 32, 1456–1465 
S.Grimme, J.Antony, S.Ehrlich and H.Krieg, J.Chem.Phys., 132, (2010), 154104 
   

----- Orbital basis set information -----
Your calculation utilizes the basis: aug-cc-pVTZ 
    H, B-Ne : Obtained from the ccRepo (grant-hill.group.shef.ac.uk/ccrepo) Feb. 2017
              R. A. Kendall, T. H. Dunning, Jr., R. J. Harrison, J. Chem. Phys. 96, 6796 (1992)
         He : Obtained from the ccRepo (grant-hill.group.shef.ac.uk/ccrepo) Feb. 2017
              D. E. Woon, T. H. Dunning, Jr., J. Chem. Phys. 100, 2975 (1994)
  Li-Be, Na : Obtained from the ccRepo (grant-hill.group.shef.ac.uk/ccrepo) Feb. 2017
              B. P. Prascher, D. E. Woon, K. A. Peterson, T. H. Dunning, Jr., A. K. Wilson, Theor. Chem. Acc. 128, 69 (2011)
         Mg : Obtained from the Peterson Research Group Website (tyr0.chem.wsu.edu/~kipeters) Feb. 2017
              B. P. Prascher, D. E. Woon, K. A. Peterson, T. H. Dunning, Jr., A. K. Wilson, Theor. Chem. Acc. 128, 69 (2011)
      Al-Ar : Obtained from the ccRepo (grant-hill.group.shef.ac.uk/ccrepo) Feb. 2017
              D. E. Woon, T. H. Dunning, Jr., J. Chem. Phys. 98, 1358 (1993)
      Sc-Zn : Obtained from the ccRepo (grant-hill.group.shef.ac.uk/ccrepo) Feb. 2017
              N. B. Balabanov, K. A. Peterson, J. Chem. Phys. 123, 064107 (2005)
              N. B. Balabanov, K. A. Peterson, J. Chem. Phys. 125, 074110 (2006)
      Ga-Kr : Obtained from the ccRepo (grant-hill.group.shef.ac.uk/ccrepo) Feb. 2017
              A. K. Wilson, D. E. Woon, K. A. Peterson, T. H. Dunning, Jr., J. Chem. Phys. 110, 7667 (1999)
     Ag, Au : Obtained from the Peterson Research Group Website (tyr0.chem.wsu.edu/~kipeters) Feb. 2017
              K. A. Peterson, C. Puzzarini, Theor. Chem. Acc. 114, 283 (2005)

----- AuxJ basis set information -----
Your calculation utilizes the auxiliary basis: def2/J
   F. Weigend, Phys. Chem. Chem. Phys. 8, 1057 (2006).

================================================================================
                                        WARNINGS
                       Please study these warnings very carefully!
================================================================================


WARNING: Geometry Optimization
  ===> : Switching off AutoStart
         For restart on a previous wavefunction, please use MOREAD

INFO   : the flag for use of LIBINT has been found!

================================================================================
                                       INPUT FILE
================================================================================
NAME = 02_ScF.in
|  1> #
|  2> # 02_ScF tpss/aug-cc-pvtz
|  3> #
|  4> ! tpss d3bj aug-cc-pvtz def2/j opt xyzfile
|  5> 
|  6> *xyz 0 1
|  7> Sc 0.0 0.0 0.0
|  8> F 0.0 0.0 2.0
|  9> *
| 10> 
| 11> %pal
| 12> nprocs 24
| 13> end
| 14> 
| 15> 
| 16>                          ****END OF INPUT****
================================================================================

                       *****************************
                       * Geometry Optimization Run *
                       *****************************

Geometry optimization settings:
Update method            Update   .... BFGS
Choice of coordinates    CoordSys .... Z-matrix Internals
Initial Hessian          InHess   .... Almoef's Model

Convergence Tolerances:
Energy Change            TolE     ....  5.0000e-06 Eh
Max. Gradient            TolMAXG  ....  3.0000e-04 Eh/bohr
RMS Gradient             TolRMSG  ....  1.0000e-04 Eh/bohr
Max. Displacement        TolMAXD  ....  4.0000e-03 bohr
RMS Displacement         TolRMSD  ....  2.0000e-03 bohr
Strict Convergence                ....  False
------------------------------------------------------------------------------
                        ORCA OPTIMIZATION COORDINATE SETUP
------------------------------------------------------------------------------

The optimization will be done in new redundant internal coordinates
Making redundant internal coordinates   ...  (new redundants) done
Evaluating the initial hessian          ...  (Almloef) done
Evaluating the coordinates              ...  done
Calculating the B-matrix                .... done
Calculating the G-matrix                .... done
Diagonalizing the G-matrix              .... done
The first mode is                       ....    0
The number of degrees of freedom        ....    1

    -----------------------------------------------------------------
                    Redundant Internal Coordinates


    -----------------------------------------------------------------
         Definition                    Initial Value    Approx d2E/dq
    -----------------------------------------------------------------
      1. B(F   1,Sc  0)                  2.0000         0.559597   
    -----------------------------------------------------------------

Number of atoms                         .... 2
Number of degrees of freedom            .... 1

         *************************************************************
         *                GEOMETRY OPTIMIZATION CYCLE   1            *
         *************************************************************
---------------------------------
CARTESIAN COORDINATES (ANGSTROEM)
---------------------------------
  Sc     0.000000    0.000000    0.000000
  F      0.000000    0.000000    2.000000

----------------------------
CARTESIAN COORDINATES (A.U.)
----------------------------
  NO LB      ZA    FRAG     MASS         X           Y           Z
   0 Sc   21.0000    0    44.960    0.000000    0.000000    0.000000
   1 F     9.0000    0    18.998    0.000000    0.000000    3.779452

--------------------------------
INTERNAL COORDINATES (ANGSTROEM)
--------------------------------
 Sc     0   0   0     0.000000000000     0.00000000     0.00000000
 F      1   0   0     2.000000000000     0.00000000     0.00000000

---------------------------
INTERNAL COORDINATES (A.U.)
---------------------------
 Sc     0   0   0     0.000000000000     0.00000000     0.00000000
 F      1   0   0     3.779452267843     0.00000000     0.00000000

---------------------
BASIS SET INFORMATION
---------------------
There are 2 groups of distinct atoms

 Group   1 Type Sc  : 116s77p23d3f2g contracted to 8s7p5d3f2g pattern {19191919191911/151515151511/77711/111/11}
 Group   2 Type F   : 19s6p3d2f contracted to 5s4p3d2f pattern {88111/3111/111/11}

Atom   0Sc   basis set group =>   1
Atom   1F    basis set group =>   2
---------------------------------
AUXILIARY/J BASIS SET INFORMATION
---------------------------------
There are 2 groups of distinct atoms

 Group   1 Type Sc  : 19s5p5d3f3g contracted to 8s5p5d2f3g pattern {121111111/11111/11111/21/111}
 Group   2 Type F   : 12s5p4d2f1g contracted to 6s4p3d1f1g pattern {711111/2111/211/2/1}

Atom   0Sc   basis set group =>   1
Atom   1F    basis set group =>   2


           ************************************************************
           *        Program running with 24 parallel MPI-processes    *
           *              working on a common directory               *
           ************************************************************
------------------------------------------------------------------------------
                           ORCA GTO INTEGRAL CALCULATION
                           -- RI-GTO INTEGRALS CHOSEN --
------------------------------------------------------------------------------

                         BASIS SET STATISTICS AND STARTUP INFO

Gaussian basis set:
 # of primitive gaussian shells          ...  251
 # of primitive gaussian functions       ...  567
 # of contracted shells                  ...   39
 # of contracted basis functions         ...  139
 Highest angular momentum                ...    4
 Maximum contraction depth               ...   19
Auxiliary gaussian basis set:
 # of primitive gaussian shells          ...   59
 # of primitive gaussian functions       ...  177
 # of contracted shells                  ...   38
 # of contracted aux-basis functions     ...  138
 Highest angular momentum                ...    4
 Maximum contraction depth               ...   12
Ratio of auxiliary to basis functions    ...  0.99
Integral package used                  ... LIBINT
 One Electron integrals                  ... done
 Ordering auxiliary basis shells         ... done
 Integral threshhold             Thresh  ...  2.500e-11
 Primitive cut-off               TCut    ...  2.500e-12
 Pre-screening matrix                    ... done
 Shell pair data                         ... 
 Ordering of the shell pairs             ... done (   0.000 sec) 780 of 780 pairs
 Determination of significant pairs      ... done (   0.000 sec)
 Creation of shell pair data             ... done (   0.001 sec)
 Storage of shell pair data              ... done (   0.012 sec)
 Shell pair data done in (   0.013 sec)
 Computing two index integrals           ... done
 Cholesky decomposition of the V-matrix  ... done


Timings:
 Total evaluation time                   ...   2.276 sec (  0.038 min)
 One electron matrix time                ...   0.038 sec (  0.001 min) =  1.7%
 Schwartz matrix evaluation time         ...   2.112 sec (  0.035 min) = 92.8%
 Two index repulsion integral time       ...   0.001 sec (  0.000 min) =  0.0%
 Cholesky decomposition of V             ...   0.083 sec (  0.001 min) =  3.7%
 Three index repulsion integral time     ...   0.000 sec (  0.000 min) =  0.0%



           ************************************************************
           *        Program running with 24 parallel MPI-processes    *
           *              working on a common directory               *
           ************************************************************
-------------------------------------------------------------------------------
                                 ORCA SCF
-------------------------------------------------------------------------------

------------
SCF SETTINGS
------------
Hamiltonian:
 Density Functional     Method          .... DFT(GTOs)
 Exchange Functional    Exchange        .... TPSS
 Correlation Functional Correlation     .... TPSS
 LDA part of GGA corr.  LDAOpt          .... PW91-LDA
 Gradients option       PostSCFGGA      .... off
   Density functional embedding theory  .... OFF
   NL short-range parameter             ....  5.000000
 RI-approximation to the Coulomb term is turned on
   Number of auxiliary basis functions  .... 138


General Settings:
 Integral files         IntName         .... 02_ScF
 Hartree-Fock type      HFTyp           .... RHF
 Total Charge           Charge          ....    0
 Multiplicity           Mult            ....    1
 Number of Electrons    NEL             ....   30
 Basis Dimension        Dim             ....  139
 Nuclear Repulsion      ENuc            ....     50.0072461844 Eh

Convergence Acceleration:
 DIIS                   CNVDIIS         .... on
   Start iteration      DIISMaxIt       ....    12
   Startup error        DIISStart       ....  0.200000
   # of expansion vecs  DIISMaxEq       ....     5
   Bias factor          DIISBfac        ....   1.050
   Max. coefficient     DIISMaxC        ....  10.000
 Newton-Raphson         CNVNR           .... off
 SOSCF                  CNVSOSCF        .... off
 Level Shifting         CNVShift        .... on
   Level shift para.    LevelShift      ....    0.2500
   Turn off err/grad.   ShiftErr        ....    0.0010
 Zerner damping         CNVZerner       .... off
 Static damping         CNVDamp         .... on
   Fraction old density DampFac         ....    0.7000
   Max. Damping (<1)    DampMax         ....    0.9800
   Min. Damping (>=0)   DampMin         ....    0.0000
   Turn off err/grad.   DampErr         ....    0.1000
 Fernandez-Rico         CNVRico         .... off

SCF Procedure:
 Maximum # iterations   MaxIter         ....   125
 SCF integral mode      SCFMode         .... Direct
   Integral package                     .... LIBINT
 Reset frequency        DirectResetFreq ....    20
 Integral Threshold     Thresh          ....  2.500e-11 Eh
 Primitive CutOff       TCut            ....  2.500e-12 Eh

Convergence Tolerance:
 Convergence Check Mode ConvCheckMode   .... Total+1el-Energy
 Convergence forced     ConvForced      .... 0
 Energy Change          TolE            ....  1.000e-08 Eh
 1-El. energy change                    ....  1.000e-05 Eh
 DIIS Error             TolErr          ....  5.000e-07


Diagonalization of the overlap matrix:
Smallest eigenvalue                        ... 9.759e-05
Time for diagonalization                   ...    0.005 sec
Threshold for overlap eigenvalues          ... 1.000e-08
Number of eigenvalues below threshold      ... 0
Time for construction of square roots      ...    0.002 sec
Total time needed                          ...    0.007 sec

-------------------
DFT GRID GENERATION
-------------------

General Integration Accuracy     IntAcc      ...  4.340
Radial Grid Type                 RadialGrid  ... Gauss-Chebyshev
Angular Grid (max. acc.)         AngularGrid ... Lebedev-110
Angular grid pruning method      GridPruning ... 3 (G Style)
Weight generation scheme         WeightScheme... Becke
Basis function cutoff            BFCut       ...    1.0000e-11
Integration weight cutoff        WCut        ...    1.0000e-14
Grids for H and He will be reduced by one unit

# of grid points (after initial pruning)     ...   4712 (   0.0 sec)
# of grid points (after weights+screening)   ...   4688 (   0.0 sec)
nearest neighbour list constructed           ...    0.0 sec
Grid point re-assignment to atoms done       ...    0.0 sec
Grid point division into batches done        ...    0.0 sec
Reduced shell lists constructed in    0.0 sec

Total number of grid points                  ...     4688
Total number of batches                      ...       74
Average number of points per batch           ...       63
Average number of grid points per atom       ...     2344
Average number of shells per batch           ...    23.20 (59.49%)
Average number of basis functions per batch  ...    79.20 (56.98%)
Average number of large shells per batch     ...    17.60 (75.86%)
Average number of large basis fcns per batch ...    60.80 (76.77%)
Maximum spatial batch extension              ...  20.56, 31.13, 17.28 au
Average spatial batch extension              ...   1.07,  1.41,  0.93 au

Time for grid setup =    0.023 sec

------------------------------
INITIAL GUESS: MODEL POTENTIAL
------------------------------
Loading Hartree-Fock densities                     ... done
Calculating cut-offs                               ... done
Setting up the integral package                    ... done
Initializing the effective Hamiltonian             ... done
Starting the Coulomb interaction                   ... done (   0.0 sec)
Reading the grid                                   ... done
Mapping shells                                     ... done
Starting the XC term evaluation                    ... done (   0.0 sec)
  promolecular density results
     # of electrons  =     30.000761290
     EX              =    -47.806748165
     EC              =     -1.135823399
     EX+EC           =    -48.942571564
Transforming the Hamiltonian                       ... done (   0.0 sec)
Diagonalizing the Hamiltonian                      ... done (   0.0 sec)
Back transforming the eigenvectors                 ... done (   0.0 sec)
Now organizing SCF variables                       ... done
                      ------------------
                      INITIAL GUESS DONE (   0.1 sec)
                      ------------------
--------------
SCF ITERATIONS
--------------
ITER       Energy         Delta-E        Max-DP      RMS-DP      [F,P]     Damp
               ***  Starting incremental Fock matrix formation  ***
  0   -860.5188992457   0.000000000000 0.16549791  0.00478182  0.3108458 0.7000
  1   -860.5573856091  -0.038486363374 0.10849876  0.00229259  0.0547389 0.7000
                               ***Turning on DIIS***
  2   -860.5703537482  -0.012968139071 0.26530336  0.00560987  0.0740152 0.0000
  3   -860.6056715677  -0.035317819503 0.04674157  0.00109396  0.1566999 0.7000
  4   -860.6101667406  -0.004495172861 0.03838246  0.00091407  0.1318290 0.7000
  5   -860.6140454085  -0.003878667911 0.03400831  0.00076938  0.1093690 0.7000
  6   -860.6174687590  -0.003423350539 0.09884310  0.00211822  0.0902847 0.0000
  7   -860.6261965102  -0.008727751192 0.04396151  0.00077551  0.0343681 0.0000
  8   -860.6283858581  -0.002189347939 0.02249238  0.00050274  0.0045721 0.0000
  9   -860.6284459250  -0.000060066818 0.01293486  0.00021479  0.0030400 0.0000
 10   -860.6284661926  -0.000020267694 2.00181891  0.01803048  0.0007700 0.0000
 11   -860.4255236745   0.202942518144 0.00067262  0.00001750  0.3898809 0.7000
 12   -860.4253683393   0.000155335241 0.00045741  0.00001133  0.3901216 0.7000
 13   -860.4252452920   0.000123047301 0.00050157  0.00001303  0.3903130 0.7000
 14   -860.4250699028   0.000175389139 0.00072969  0.00001815  0.3905763 0.7000
 15   -860.4248873164   0.000182586450 0.50918442  0.00893884  0.3908733 0.7000
 16   -860.4965734245  -0.071686108079 0.10994372  0.00249310  0.1790096 0.7000
 17   -860.5242671306  -0.027693706134 0.22773166  0.00494946  0.0826623 0.0000
 18   -860.5546946343  -0.030427503742 0.03761921  0.00049743  0.0803665 0.0000
 19   -860.5598086015  -0.005113967154 0.02437623  0.00035819  0.0399231 0.0000
               *** Restarting incremental Fock matrix formation ***
                                   *** Resetting DIIS ***
 20   -860.5612440859  -0.001435484369 0.05194697  0.00108487  0.0168568 0.0000
 21   -860.5614652797  -0.000221193895 0.04745454  0.00093103  0.0132134 0.0000
 22   -860.5616267013  -0.000161421506 0.00677141  0.00010586  0.0068753 0.0000
 23   -860.5616654277  -0.000038726415 0.00406207  0.00004787  0.0040258 0.0000
 24   -860.5616791757  -0.000013748077 0.00190078  0.00002684  0.0017574 0.0000
 25   -860.5616816339  -0.000002458158 0.00167053  0.00001802  0.0012335 0.0000
 26   -860.5616830847  -0.000001450846 1.76207591  0.01566873  0.0002130 0.0000
 27   -860.5349591838   0.026723900962 0.00004865  0.00000085  0.1861443 0.7000
 28   -860.5349509355   0.000008248257 0.00003014  0.00000056  0.1861563 0.7000
 29   -860.5349434445   0.000007491076 0.00002472  0.00000050  0.1861652 0.7000
 30   -860.5349371043   0.000006340136 0.00002874  0.00000054  0.1861725 0.7000
 31   -860.5349361187   0.000000985612 0.57643941  0.01243308  0.1861739 0.7000
 32   -860.5766828779  -0.041746759166 0.37912328  0.00894282  0.0808539 0.0000
 33   -860.6060498761  -0.029366998201 0.39463820  0.00773573  0.0892791 0.0000
 34   -860.6224536531  -0.016403776986 0.10291599  0.00172614  0.0414717 0.0000
 35   -860.6272647510  -0.004811097910 0.04231168  0.00073301  0.0174118 0.0000
 36   -860.6283135317  -0.001048780743 0.02212077  0.00037027  0.0055828 0.0000
 37   -860.6284245939  -0.000111062171 0.00525519  0.00011126  0.0030531 0.0000
 38   -860.6284604275  -0.000035833658 0.00405633  0.00008571  0.0013822 0.0000
 39   -860.6284685655  -0.000008137945 2.00216055  0.01809186  0.0009480 0.0000
               *** Restarting incremental Fock matrix formation ***
                                   *** Resetting DIIS ***
 40   -860.4267540092   0.201714556252 0.50541906  0.00886558  0.3879993 0.7000
 41   -860.4974782854  -0.070724276149 0.11156686  0.00257725  0.1772735 0.7000
 42   -860.5248245539  -0.027346268564 0.23041235  0.00489679  0.0776657 0.0000
 43   -860.5537327132  -0.028908159240 0.03926262  0.00057029  0.0854960 0.0000
 44   -860.5595277127  -0.005794999463 0.02622165  0.00036679  0.0427197 0.0000
 45   -860.5611681010  -0.001640388328 0.01994965  0.00023047  0.0183851 0.0000
 46   -860.5615269625  -0.000358861551 0.01551095  0.00016906  0.0087905 0.0000
 47   -860.5616420468  -0.000115084296 0.01043463  0.00010607  0.0038616 0.0000
 48   -860.5616694134  -0.000027366548 0.00665120  0.00006868  0.0019087 0.0000
 49   -860.5616778856  -0.000008472182 0.00402222  0.00004335  0.0011575 0.0000
 50   -860.5616805950  -0.000002709479 1.75552619  0.01563166  0.0009496 0.0000
 51   -860.5351293180   0.026551277070 0.00011530  0.00000204  0.1859986 0.7000
 52   -860.5351117741   0.000017543907 0.00009825  0.00000148  0.1860278 0.7000
 53   -860.5351228081  -0.000011034011 0.00026809  0.00000473  0.1860083 0.7000
 54   -860.5352049167  -0.000082108610 0.00021416  0.00000357  0.1858932 0.7000
 55   -860.5352660364  -0.000061119740 0.57557228  0.01241522  0.1858215 0.7000
 56   -860.5768610533  -0.041595016923 0.37857819  0.00893835  0.0806973 0.0000
 57   -860.6061611901  -0.029300136711 0.39338811  0.00771502  0.0890650 0.0000
 58   -860.6224838243  -0.016322634201 0.10278420  0.00172342  0.0413799 0.0000
 59   -860.6272706132  -0.004786788917 0.04233041  0.00073295  0.0173696 0.0000
               *** Restarting incremental Fock matrix formation ***
                                   *** Resetting DIIS ***
 60   -860.6283146814  -0.001044068255 0.02195082  0.00046265  0.0055711 0.0000
 61   -860.6284252154  -0.000110533994 0.03026840  0.00070170  0.0048316 0.0000
 62   -860.6284662768  -0.000041061358 0.00245463  0.00004861  0.0013670 0.0000
 63   -860.6284715259  -0.000005249120 0.00194665  0.00003858  0.0010740 0.0000
 64   -860.6284745010  -0.000002975138 2.00196683  0.01810099  0.0002555 0.0000
 65   -860.4262122788   0.202262222238 0.00010958  0.00000253  0.3887602 0.7000
 66   -860.4261860244   0.000026254431 0.00010063  0.00000220  0.3887995 0.7000
 67   -860.4261670416   0.000018982766 0.00009213  0.00000229  0.3888269 0.7000
 68   -860.4261915454  -0.000024503811 0.00006848  0.00000169  0.3887890 0.7000
 69   -860.4262206179  -0.000029072480 0.50653134  0.00888695  0.3887470 0.7000
 70   -860.4972295934  -0.071008975461 0.10849687  0.00246014  0.1776001 0.7000
 71   -860.5246240531  -0.027394459744 0.22712546  0.00489584  0.0817426 0.0000
 72   -860.5547100021  -0.030085949022 0.03760104  0.00049738  0.0802946 0.0000
 73   -860.5598161882  -0.005106186108 0.02425246  0.00035817  0.0399136 0.0000
 74   -860.5612564988  -0.001440310568 0.01816147  0.00022018  0.0168929 0.0000
 75   -860.5615733672  -0.000316868355 0.01391831  0.00017140  0.0081204 0.0000
 76   -860.5616929179  -0.000119550777 0.00931845  0.00014087  0.0037483 0.0000
 77   -860.5617569003  -0.000063982385 0.01049414  0.00012502  0.0027862 0.0000
 78   -860.5618331944  -0.000076294043 0.01345070  0.00013868  0.0037918 0.0000
 79   -860.5619541653  -0.000120970982 0.01813900  0.00018217  0.0051990 0.0000
               *** Restarting incremental Fock matrix formation ***
                                   *** Resetting DIIS ***
 80   -860.5621699778  -0.000215812451 0.03138349  0.00045410  0.0070678 0.0000
 81   -860.5626182070  -0.000448229215 0.03557179  0.00040411  0.0091630 0.0000
 82   -860.5633870208  -0.000768813804 0.04391089  0.00048075  0.0120923 0.0000
 83   -860.5646326757  -0.001245654857 0.05669345  0.00064222  0.0151586 0.0000
 84   -860.5667636394  -0.002130963703 0.07047111  0.00086011  0.0204879 0.0000
 85   -860.5701450682  -0.003381428823 0.08742084  0.00114268  0.0311844 0.0000
 86   -860.5749812705  -0.004836202260 0.13272513  0.00153133  0.0453011 0.0000
 87   -860.5807676899  -0.005786419406 0.18178014  0.00185909  0.0631666 0.0000
 88   -860.5856447263  -0.004877036458 0.21228916  0.00197804  0.0802333 0.0000
 89   -860.5875070757  -0.001862349336 0.20742295  0.00191675  0.0886690 0.0000
 90   -860.5863504085   0.001156667122 0.18149112  0.00199438  0.0982825 0.0000
 91   -860.5833903011   0.002960107465 0.04075249  0.00063985  0.1100846 0.7000
 92   -860.5836685968  -0.000278295728 0.05330246  0.00120931  0.1097913 0.7000
 93   -860.5862665302  -0.002597933371 0.08884022  0.00167836  0.1036494 0.7000
 94   -860.5907896613  -0.004523131181 0.60584548  0.01322339  0.0923708 0.0000
 95   -860.6185454591  -0.027755797795 0.39059449  0.00859655  0.0478098 0.0000
 96   -860.6230955640  -0.004550104825 0.04275333  0.00075315  0.0148264 0.0000
 97   -860.6241740105  -0.001078446492 0.03901053  0.00080368  0.0134779 0.0000
 98   -860.6247290107  -0.000555000289 0.02494745  0.00049680  0.0046906 0.0000
 99   -860.6250838179  -0.000354807146 0.01802624  0.00034946  0.0044076 0.0000
               *** Restarting incremental Fock matrix formation ***
                                   *** Resetting DIIS ***
100   -860.6253765642  -0.000292746273 0.01973849  0.00027194  0.0049502 0.0000
101   -860.6256263065  -0.000249742332 0.01811112  0.00029883  0.0045718 0.0000
102   -860.6258470061  -0.000220699638 0.01818329  0.00042396  0.0046664 0.0000
103   -860.6260436633  -0.000196657125 0.01779971  0.00029319  0.0052723 0.0000
104   -860.6262297566  -0.000186093353 0.02857483  0.00064954  0.0043500 0.0000
105   -860.6263619192  -0.000132162550 0.01541039  0.00039134  0.0057407 0.0000
106   -860.6265323657  -0.000170446546 0.01497233  0.00027531  0.0046468 0.0000
107   -860.6266630364  -0.000130670723 0.01393645  0.00026637  0.0043806 0.0000
108   -860.6267751820  -0.000112145549 0.01262216  0.00018899  0.0045340 0.0000
109   -860.6268824394  -0.000107257454 0.01220770  0.00023574  0.0044757 0.0000
110   -860.6269731889  -0.000090749423 0.02847927  0.00064828  0.0044697 0.0000
111   -860.6270625075  -0.000089318691 0.02112457  0.00048284  0.0032380 0.0000
112   -860.6271583447  -0.000095837133 0.01061736  0.00015689  0.0027045 0.0000
113   -860.6272341023  -0.000075757606 0.00935404  0.00022080  0.0027221 0.0000
114   -860.6273034213  -0.000069319042 0.00898096  0.00016564  0.0029846 0.0000
115   -860.6273641595  -0.000060738211 0.00917496  0.00015560  0.0030106 0.0000
116   -860.6274212779  -0.000057118317 0.01980238  0.00047354  0.0025650 0.0000
117   -860.6274691566  -0.000047878703 0.00870799  0.00023679  0.0030309 0.0000
118   -860.6275237081  -0.000054551540 0.00767757  0.00017051  0.0027787 0.0000
119   -860.6275691723  -0.000045464251 0.00740006  0.00012829  0.0026966 0.0000
               *** Restarting incremental Fock matrix formation ***
                                   *** Resetting DIIS ***
120   -860.6276113907  -0.000042218343 0.00755415  0.00016753  0.0026088 0.0000
121   -860.6276521070  -0.000040716325 0.00680194  0.00013428  0.0021607 0.0000
122   -860.6276900181  -0.000037911058 0.00646705  0.00010133  0.0021400 0.0000
123   -860.6277242966  -0.000034278512 0.00640054  0.00011331  0.0020515 0.0000
124   -860.6277567159  -0.000032419309 0.00893059  0.00024051  0.0020047 0.0000

               *****************************************************
               *                      ERROR                        *
               *        SCF NOT CONVERGED AFTER 125 CYCLES         *
               *****************************************************

Setting up the final grid:

General Integration Accuracy     IntAcc      ...  4.670
Radial Grid Type                 RadialGrid  ... Gauss-Chebyshev
Angular Grid (max. acc.)         AngularGrid ... Lebedev-302
Angular grid pruning method      GridPruning ... 3 (G Style)
Weight generation scheme         WeightScheme... Becke
Basis function cutoff            BFCut       ...    1.0000e-11
Integration weight cutoff        WCut        ...    1.0000e-14
Grids for H and He will be reduced by one unit

# of grid points (after initial pruning)     ...  15936 (   0.0 sec)
# of grid points (after weights+screening)   ...  15884 (   0.0 sec)
nearest neighbour list constructed           ...    0.0 sec
Grid point re-assignment to atoms done       ...    0.0 sec
Grid point division into batches done        ...    0.1 sec
Reduced shell lists constructed in    0.1 sec

Total number of grid points                  ...    15884
Total number of batches                      ...      249
Average number of points per batch           ...       63
Average number of grid points per atom       ...     7942
Average number of shells per batch           ...    21.75 (55.77%)
Average number of basis functions per batch  ...    68.92 (49.58%)
Average number of large shells per batch     ...    13.83 (63.60%)
Average number of large basis fcns per batch ...    46.33 (67.23%)
Maximum spatial batch extension              ...  30.95, 34.02, 18.16 au
Average spatial batch extension              ...   0.99,  1.01,  0.72 au

Final grid set up in    0.1 sec
Final integration                            ... done (   0.0 sec)
Change in XC energy                          ...     0.000141634
Integrated number of electrons               ...    30.000002623
Previous integrated no of electrons          ...    29.999457865

---------------
SCF CONVERGENCE
---------------

  Last Energy change         ...   -3.2419e-05  Tolerance :   1.0000e-08
  Last MAX-Density change    ...    8.9306e-03  Tolerance :   1.0000e-07
  Last RMS-Density change    ...    2.4051e-04  Tolerance :   5.0000e-09
  Last DIIS Error            ...    2.0047e-03  Tolerance :   5.0000e-07

             **** DENSITY FILE WAS UPDATED (02_ScF.scfp) ****
             **** ENERGY FILE WAS UPDATED (02_ScF.en.tmp) ****

     --------------------------------------------------------------------
                                      WARNING
     The wavefunction IS NOT YET CONVERGED! It shows however signs of
     convergence. Therefore the wavefunction will be stored and can be
     used as input for another calculation. 
     DO NOT USE THIS WAVEFUNCTION  FOR ANYHTING ELSE. It is NOT RELIABLE
     --------------------------------------------------------------------

-------
TIMINGS
-------

Total SCF time: 0 days 0 hours 0 min 17 sec 

Total time                  ....      17.502 sec
Sum of individual times     ....      17.230 sec  ( 98.4%)

Fock matrix formation       ....      16.472 sec  ( 94.1%)
  Split-RI-J                ....      14.495 sec  ( 88.0% of F)
  XC integration            ....       1.418 sec  (  8.6% of F)
    Basis function eval.    ....       0.213 sec  ( 15.0% of XC)
    Density eval.           ....       0.163 sec  ( 11.5% of XC)
    XC-Functional eval.     ....       0.060 sec  (  4.3% of XC)
    XC-Potential eval.      ....       0.443 sec  ( 31.3% of XC)
Diagonalization             ....       0.310 sec  (  1.8%)
Density matrix formation    ....       0.040 sec  (  0.2%)
Population analysis         ....       0.000 sec  (  0.0%)
Initial guess               ....       0.121 sec  (  0.7%)
Orbital Transformation      ....       0.000 sec  (  0.0%)
Orbital Orthonormalization  ....       0.000 sec  (  0.0%)
DIIS solution               ....       0.156 sec  (  0.9%)
Grid generation             ....       0.130 sec  (  0.7%)


-------------------------------------------------------------------------------
                          DFT DISPERSION CORRECTION                            
                                                                               
                              DFTD3 V3.1  Rev 1                                
                          USING Becke-Johnson damping                          
-------------------------------------------------------------------------------
The TPSS functional is recognized
Active option DFTDOPT                   ...         4   

molecular C6(AA) [au] = 657.339150 


            DFT-D V3
 parameters
 s6 scaling factor         :     1.0000 
 a1 scaling factor         :     0.4535 
 s8 scaling factor         :     1.9435 
 a2 scaling factor         :     4.4752 
 ad hoc parameters k1-k3   :    16.0000     1.3333    -4.0000 

 Edisp/kcal,au: -0.388105045685  -0.000618484693 
 E6   /kcal   :  -0.148523264 
 E8   /kcal   :  -0.239581782 
 % E8         :  61.731169122 

-------------------------   ----------------
Dispersion correction           -0.000618485
-------------------------   ----------------


-------------------------   --------------------
FINAL SINGLE POINT ENERGY      -860.628233566238   (Wavefunction not fully converged!)
-------------------------   --------------------



           ************************************************************
           *        Program running with 24 parallel MPI-processes    *
           *              working on a common directory               *
           ************************************************************
------------------------------------------------------------------------------
                         ORCA SCF GRADIENT CALCULATION
------------------------------------------------------------------------------

Gradient of the Kohn-Sham DFT energy:
Kohn-Sham wavefunction type      ... RKS
Hartree-Fock exchange scaling    ...    0.000
Number of operators              ...    1
Number of atoms                  ...    2
Basis set dimensions             ...  139
Integral neglect threshold       ... 2.5e-11
Integral primitive cutoff        ... 2.5e-12

Nuclear repulsion gradient       ... done
One Electron Gradient            ... done
Pre-screening matrix             ... done
RI-J gradient                    ... done
Exchange-correlation gradient    ... done
Dispersion correction            ... done

------------------
CARTESIAN GRADIENT
------------------

   1   Sc  :   -0.000000001    0.000000001   -0.058639997
   2   F   :   -0.000000001    0.000000000    0.060793771

Difference to translation invariance:
           :   -0.0000000026    0.0000000012    0.0021537744

Norm of the cartesian gradient     ...    0.0844661580
RMS gradient                       ...    0.0344831646
MAX gradient                       ...    0.0607937712

-------
TIMINGS
-------

Total SCF gradient time            ...        4.276 sec

One electron gradient       ....       0.060 sec  (  1.4%)
Prescreening matrices       ....       3.390 sec  ( 79.3%)
RI-J Coulomb gradient       ....       0.219 sec  (  5.1%)
XC gradient                 ....       0.047 sec  (  1.1%)
------------------------------------------------------------------------------
                         ORCA GEOMETRY RELAXATION STEP
------------------------------------------------------------------------------

Reading the OPT-File                    .... done
Getting information on internals        .... done
Copying old internal coords+grads       .... done
Making the new internal coordinates     .... (new redundants).... done
Validating the new internal coordinates .... (new redundants).... done
Calculating the B-matrix                .... done
Calculating the G,G- and P matrices     .... done
Transforming gradient to internals      .... done
Projecting the internal gradient        .... done
Number of atoms                         ....   2
Number of internal coordinates          ....   1
Current Energy                          ....  -860.628233566 Eh
Current gradient norm                   ....     0.084466158 Eh/bohr
Maximum allowed component of the step   ....  0.300
Current trust radius                    ....  0.300
Evaluating the initial hessian          ....  (Almloef) done
Projecting the Hessian                  .... done
Forming the augmented Hessian           .... done
Diagonalizing the augmented Hessian     .... done
Last element of RFO vector              ....  0.994478234
Lowest eigenvalues of augmented Hessian:
 -0.006301668
Length of the computed step             ....  0.105525734
The final length of the internal step   ....  0.105525734
Converting the step to cartesian space:
 Initial RMS(Int)=    0.1055257337
Transforming coordinates:
 Iter   0:  RMS(Cart)=    0.0304626554 RMS(Int)=    0.1055257337
 Iter   1:  RMS(Cart)=    0.0000000000 RMS(Int)=    0.0000000000
done
Storing new coordinates                 .... done

                                .--------------------.
          ----------------------|Geometry convergence|-------------------------
          Item                value                   Tolerance       Converged
          ---------------------------------------------------------------------
          RMS gradient        0.0597168840            0.0001000000      NO
          MAX gradient        0.0597168840            0.0003000000      NO
          RMS step            0.1055257337            0.0020000000      NO
          MAX step            0.1055257337            0.0040000000      NO
          ........................................................
          Max(Bonds)      0.0558      Max(Angles)    0.00
          Max(Dihed)        0.00      Max(Improp)    0.00
          ---------------------------------------------------------------------

The optimization has not yet converged - more geometry cycles are needed


    ---------------------------------------------------------------------------
                         Redundant Internal Coordinates
                            (Angstroem and degrees)

        Definition                    Value    dE/dq     Step     New-Value
    ----------------------------------------------------------------------------
     1. B(F   1,Sc  0)                2.0000  0.059717 -0.0558    1.9442   
    ----------------------------------------------------------------------------

         *************************************************************
         *                GEOMETRY OPTIMIZATION CYCLE   2            *
         *************************************************************
---------------------------------
CARTESIAN COORDINATES (ANGSTROEM)
---------------------------------
  Sc     0.000000    0.000000    0.027921
  F      0.000000    0.000000    1.972079

----------------------------
CARTESIAN COORDINATES (A.U.)
----------------------------
  NO LB      ZA    FRAG     MASS         X           Y           Z
   0 Sc   21.0000    0    44.960    0.000000    0.000000    0.052763
   1 F     9.0000    0    18.998    0.000000    0.000000    3.726689

--------------------------------
INTERNAL COORDINATES (ANGSTROEM)
--------------------------------
 Sc     0   0   0     0.000000000000     0.00000000     0.00000000
 F      1   0   0     1.944158186830     0.00000000     0.00000000

---------------------------
INTERNAL COORDINATES (A.U.)
---------------------------
 Sc     0   0   0     0.000000000000     0.00000000     0.00000000
 F      1   0   0     3.673926534130     0.00000000     0.00000000



           ************************************************************
           *        Program running with 24 parallel MPI-processes    *
           *              working on a common directory               *
           ************************************************************
 One Electron integrals                  ... done
 Pre-screening matrix                    ... done


           ************************************************************
           *        Program running with 24 parallel MPI-processes    *
           *              working on a common directory               *
           ************************************************************

Diagonalization of the overlap matrix:
Smallest eigenvalue                        ... 9.583e-05
Time for diagonalization                   ...    0.004 sec
Threshold for overlap eigenvalues          ... 1.000e-08
Number of eigenvalues below threshold      ... 0
Time for construction of square roots      ...    0.002 sec
Total time needed                          ...    0.006 sec

-------------------
DFT GRID GENERATION
-------------------

General Integration Accuracy     IntAcc      ...  4.340
Radial Grid Type                 RadialGrid  ... Gauss-Chebyshev
Angular Grid (max. acc.)         AngularGrid ... Lebedev-110
Angular grid pruning method      GridPruning ... 3 (G Style)
Weight generation scheme         WeightScheme... Becke
Basis function cutoff            BFCut       ...    1.0000e-11
Integration weight cutoff        WCut        ...    1.0000e-14
Grids for H and He will be reduced by one unit

# of grid points (after initial pruning)     ...   4712 (   0.0 sec)
# of grid points (after weights+screening)   ...   4687 (   0.0 sec)
nearest neighbour list constructed           ...    0.0 sec
Grid point re-assignment to atoms done       ...    0.0 sec
Grid point division into batches done        ...    0.0 sec
Reduced shell lists constructed in    0.0 sec

Total number of grid points                  ...     4687
Total number of batches                      ...       74
Average number of points per batch           ...       63
Average number of grid points per atom       ...     2344
Average number of shells per batch           ...    23.20 (59.49%)
Average number of basis functions per batch  ...    79.20 (56.98%)
Average number of large shells per batch     ...    17.60 (75.86%)
Average number of large basis fcns per batch ...    60.80 (76.77%)
Maximum spatial batch extension              ...  20.56, 31.13, 17.28 au
Average spatial batch extension              ...   1.07,  1.41,  0.93 au

Time for grid setup =    0.021 sec

--------------
SCF ITERATIONS
--------------
ITER       Energy         Delta-E        Max-DP      RMS-DP      [F,P]     Damp
               ***  Starting incremental Fock matrix formation  ***
  0   -860.6333649038   0.000000000000 0.00259795  0.00009744  0.0084283 0.7000
  1   -860.6334503269  -0.000085423082 0.00411219  0.00009553  0.0039261 0.7000
                               ***Turning on DIIS***
  2   -860.6335234234  -0.000073096540 0.01640984  0.00032797  0.0027233 0.0000
  3   -860.6337294392  -0.000206015775 0.00907131  0.00023954  0.0021665 0.0000
  4   -860.6337645478  -0.000035108620 0.00771868  0.00014976  0.0023242 0.0000
  5   -860.6337942821  -0.000029734272 0.00598976  0.00013941  0.0020770 0.0000
  6   -860.6338219353  -0.000027653226 0.00602350  0.00011554  0.0020877 0.0000
  7   -860.6338477337  -0.000025798362 0.00578501  0.00009913  0.0020188 0.0000
  8   -860.6338721253  -0.000024391675 0.00593844  0.00014563  0.0019812 0.0000
  9   -860.6338946663  -0.000022540921 0.00545666  0.00015462  0.0019797 0.0000
 10   -860.6339162839  -0.000021617604 0.01038588  0.00026420  0.0017753 0.0000
 11   -860.6339361424  -0.000019858552 0.00500424  0.00007784  0.0018949 0.0000
 12   -860.6339557817  -0.000019639308 0.00527265  0.00013293  0.0018281 0.0000
 13   -860.6339724167  -0.000016635001 0.00448528  0.00011168  0.0018425 0.0000
 14   -860.6339911933  -0.000018776541 0.00717731  0.00020154  0.0017210 0.0000
 15   -860.6340054159  -0.000014222610 0.00433355  0.00011191  0.0018063 0.0000
 16   -860.6340227806  -0.000017364685 0.00454983  0.00006862  0.0016494 0.0000
 17   -860.6340375651  -0.000014784511 0.00459639  0.00007932  0.0015915 0.0000
 18   -860.6340512631  -0.000013698039 0.00455184  0.00009508  0.0015801 0.0000
 19   -860.6340637083  -0.000012445166 0.00412193  0.00007173  0.0015794 0.0000
               *** Restarting incremental Fock matrix formation ***
                                   *** Resetting DIIS ***
 20   -860.6340772130  -0.000013504747 0.00420429  0.00006207  0.0014832 0.0000
 21   -860.6340896003  -0.000012387228 0.00411220  0.00006668  0.0013874 0.0000
 22   -860.6341012483  -0.000011648082 0.00408444  0.00005197  0.0013749 0.0000
 23   -860.6341121974  -0.000010949031 0.00401559  0.00006554  0.0013270 0.0000
 24   -860.6341227739  -0.000010576523 0.00491277  0.00014693  0.0013022 0.0000
 25   -860.6341318347  -0.000009060764 0.00355223  0.00010654  0.0013658 0.0000
 26   -860.6341420632  -0.000010228510 0.00396716  0.00012083  0.0012873 0.0000
 27   -860.6341509756  -0.000008912414 0.00353886  0.00005311  0.0012402 0.0000
 28   -860.6341600837  -0.000009108151 0.00595384  0.00017496  0.0012263 0.0000
 29   -860.6341664933  -0.000006409576 0.00447746  0.00013429  0.0014234 0.0000
 30   -860.6341763290  -0.000009835657 0.00356172  0.00007568  0.0012109 0.0000
 31   -860.6341839810  -0.000007652070 0.00338146  0.00005356  0.0011492 0.0000
 32   -860.6341913459  -0.000007364825 0.00324465  0.00004649  0.0011487 0.0000
 33   -860.6341987830  -0.000007437134 0.00328232  0.00007629  0.0011210 0.0000
 34   -860.6342052540  -0.000006470994 0.00317278  0.00006034  0.0011142 0.0000
 35   -860.6342122433  -0.000006989291 0.00313062  0.00005861  0.0010709 0.0000
 36   -860.6342186016  -0.000006358364 0.00312220  0.00006818  0.0010538 0.0000
 37   -860.6342243461  -0.000005744425 0.00297858  0.00004462  0.0010511 0.0000
 38   -860.6342305052  -0.000006159120 0.00301774  0.00007137  0.0010296 0.0000
 39   -860.6342358636  -0.000005358401 0.00285718  0.00008013  0.0010092 0.0000
               *** Restarting incremental Fock matrix formation ***
                                   *** Resetting DIIS ***
 40   -860.6342414879  -0.000005624347 0.44112707  0.00467189  0.0009743 0.0000
 41   -860.6335243981   0.000717089842 0.00000201  0.00000004  0.0254947 0.0000
                 **** Energy Check signals convergence ****

               *****************************************************
               *                     SUCCESS                       *
               *           SCF CONVERGED AFTER  42 CYCLES          *
               *****************************************************

Setting up the final grid:

General Integration Accuracy     IntAcc      ...  4.670
Radial Grid Type                 RadialGrid  ... Gauss-Chebyshev
Angular Grid (max. acc.)         AngularGrid ... Lebedev-302
Angular grid pruning method      GridPruning ... 3 (G Style)
Weight generation scheme         WeightScheme... Becke
Basis function cutoff            BFCut       ...    1.0000e-11
Integration weight cutoff        WCut        ...    1.0000e-14
Grids for H and He will be reduced by one unit

# of grid points (after initial pruning)     ...  15936 (   0.0 sec)
# of grid points (after weights+screening)   ...  15884 (   0.0 sec)
nearest neighbour list constructed           ...    0.0 sec
Grid point re-assignment to atoms done       ...    0.0 sec
Grid point division into batches done        ...    0.1 sec
Reduced shell lists constructed in    0.1 sec

Total number of grid points                  ...    15884
Total number of batches                      ...      250
Average number of points per batch           ...       63
Average number of grid points per atom       ...     7942
Average number of shells per batch           ...    22.00 (56.41%)
Average number of basis functions per batch  ...    69.83 (50.24%)
Average number of large shells per batch     ...    13.83 (62.88%)
Average number of large basis fcns per batch ...    46.33 (66.35%)
Maximum spatial batch extension              ...  30.95, 34.02, 18.13 au
Average spatial batch extension              ...   0.97,  1.03,  0.72 au

Final grid set up in    0.1 sec
Final integration                            ... done (   0.1 sec)
Change in XC energy                          ...     0.000155407
Integrated number of electrons               ...    29.999999726
Previous integrated no of electrons          ...    29.999642136
Total Energy       :         -860.63336900 Eh          -23419.02457 eV
  Last Energy change         ...   -7.1144e-09  Tolerance :   1.0000e-08
  Last MAX-Density change    ...    2.6427e-07  Tolerance :   1.0000e-07
             **** THE GBW FILE WAS UPDATED (02_ScF.gbw) ****
             **** DENSITY FILE WAS UPDATED (02_ScF.scfp) ****
             **** ENERGY FILE WAS UPDATED (02_ScF.en.tmp) ****
             **** THE GBW FILE WAS UPDATED (02_ScF.gbw) ****
             **** DENSITY FILE WAS UPDATED (02_ScF.scfp) ****
Total SCF time: 0 days 0 hours 0 min 7 sec 


-------------------------------------------------------------------------------
                          DFT DISPERSION CORRECTION                            
                                                                               
                              DFTD3 V3.1  Rev 1                                
                          USING Becke-Johnson damping                          
-------------------------------------------------------------------------------
-------------------------   ----------------
Dispersion correction           -0.000616233
-------------------------   ----------------


-------------------------   --------------------
FINAL SINGLE POINT ENERGY      -860.633985230282
-------------------------   --------------------



           ************************************************************
           *        Program running with 24 parallel MPI-processes    *
           *              working on a common directory               *
           ************************************************************
------------------------------------------------------------------------------
                         ORCA SCF GRADIENT CALCULATION
------------------------------------------------------------------------------

Gradient of the Kohn-Sham DFT energy:
Kohn-Sham wavefunction type      ... RKS
Hartree-Fock exchange scaling    ...    0.000
Number of operators              ...    1
Number of atoms                  ...    2
Basis set dimensions             ...  139
Integral neglect threshold       ... 2.5e-11
Integral primitive cutoff        ... 2.5e-12

Nuclear repulsion gradient       ... done
One Electron Gradient            ... done
Pre-screening matrix             ... done
RI-J gradient                    ... done
Exchange-correlation gradient    ... done
Dispersion correction            ... done

------------------
CARTESIAN GRADIENT
------------------

   1   Sc  :    0.000000006    0.000000008   -0.048191857
   2   F   :    0.000000001    0.000000001    0.050381544

Difference to translation invariance:
           :    0.0000000066    0.0000000094    0.0021896870

Norm of the cartesian gradient     ...    0.0697191153
RMS gradient                       ...    0.0284627096
MAX gradient                       ...    0.0503815439

-------
TIMINGS
-------

Total SCF gradient time            ...        4.220 sec

One electron gradient       ....       0.058 sec  (  1.4%)
Prescreening matrices       ....       3.372 sec  ( 79.9%)
RI-J Coulomb gradient       ....       0.221 sec  (  5.2%)
XC gradient                 ....       0.046 sec  (  1.1%)
------------------------------------------------------------------------------
                         ORCA GEOMETRY RELAXATION STEP
------------------------------------------------------------------------------

Reading the OPT-File                    .... done
Getting information on internals        .... done
Copying old internal coords+grads       .... done
Making the new internal coordinates     .... (new redundants).... done
Validating the new internal coordinates .... (new redundants).... done
Calculating the B-matrix                .... done
Calculating the G,G- and P matrices     .... done
Transforming gradient to internals      .... done
Projecting the internal gradient        .... done
Number of atoms                         ....   2
Number of internal coordinates          ....   1
Current Energy                          ....  -860.633985230 Eh
Current gradient norm                   ....     0.069719115 Eh/bohr
Maximum allowed component of the step   ....  0.300
Current trust radius                    ....  0.300
Updating the Hessian (BFGS)             .... done
Forming the augmented Hessian           .... done
Diagonalizing the augmented Hessian     .... done
Last element of RFO vector              ....  0.924137906
Lowest eigenvalues of augmented Hessian:
 -0.020376213
Length of the computed step             ....  0.413422137
Warning: the length of the step is outside the trust region - taking restricted step instead
The input lambda is                     ....    -0.020376
   iter:   1  x=   -0.048597  g=    2.867355 f(x)=     0.080918
   iter:   2  x=   -0.062945  g=    1.515905 f(x)=     0.021750
   iter:   3  x=   -0.065392  g=    1.147300 f(x)=     0.002808
   iter:   4  x=   -0.065449  g=    1.096771 f(x)=     0.000062
   iter:   5  x=   -0.065449  g=    1.095631 f(x)=     0.000000
   iter:   6  x=   -0.065449  g=    1.095630 f(x)=     0.000000
The output lambda is                    ....    -0.065449 (6 iterations)
The final length of the internal step   ....  0.300000000
Converting the step to cartesian space:
 Initial RMS(Int)=    0.3000000000
Transforming coordinates:
 Iter   0:  RMS(Cart)=    0.0866025404 RMS(Int)=    0.3000000000
 Iter   1:  RMS(Cart)=    0.0000000000 RMS(Int)=    0.0000000000
done
Storing new coordinates                 .... done

                                .--------------------.
          ----------------------|Geometry convergence|-------------------------
          Item                value                   Tolerance       Converged
          ---------------------------------------------------------------------
          Energy change      -0.0057516640            0.0000050000      NO
          RMS gradient        0.0492867004            0.0001000000      NO
          MAX gradient        0.0492867004            0.0003000000      NO
          RMS step            0.3000000000            0.0020000000      NO
          MAX step            0.3000000000            0.0040000000      NO
          ........................................................
          Max(Bonds)      0.1588      Max(Angles)    0.00
          Max(Dihed)        0.00      Max(Improp)    0.00
          ---------------------------------------------------------------------

The optimization has not yet converged - more geometry cycles are needed


    ---------------------------------------------------------------------------
                         Redundant Internal Coordinates
                            (Angstroem and degrees)

        Definition                    Value    dE/dq     Step     New-Value
    ----------------------------------------------------------------------------
     1. B(F   1,Sc  0)                1.9442  0.049287 -0.1588    1.7854   
    ----------------------------------------------------------------------------

         *************************************************************
         *                GEOMETRY OPTIMIZATION CYCLE   3            *
         *************************************************************
---------------------------------
CARTESIAN COORDINATES (ANGSTROEM)
---------------------------------
  Sc     0.000000    0.000000    0.107297
  F      0.000000    0.000000    1.892703

----------------------------
CARTESIAN COORDINATES (A.U.)
----------------------------
  NO LB      ZA    FRAG     MASS         X           Y           Z
   0 Sc   21.0000    0    44.960    0.000000    0.000000    0.202763
   1 F     9.0000    0    18.998    0.000000    0.000000    3.576689

--------------------------------
INTERNAL COORDINATES (ANGSTROEM)
--------------------------------
 Sc     0   0   0     0.000000000000     0.00000000     0.00000000
 F      1   0   0     1.785405024340     0.00000000     0.00000000

---------------------------
INTERNAL COORDINATES (A.U.)
---------------------------
 Sc     0   0   0     0.000000000000     0.00000000     0.00000000
 F      1   0   0     3.373926534130     0.00000000     0.00000000



           ************************************************************
           *        Program running with 24 parallel MPI-processes    *
           *              working on a common directory               *
           ************************************************************
 One Electron integrals                  ... done
 Pre-screening matrix                    ... done


           ************************************************************
           *        Program running with 24 parallel MPI-processes    *
           *              working on a common directory               *
           ************************************************************

Diagonalization of the overlap matrix:
Smallest eigenvalue                        ... 8.555e-05
Time for diagonalization                   ...    0.004 sec
Threshold for overlap eigenvalues          ... 1.000e-08
Number of eigenvalues below threshold      ... 0
Time for construction of square roots      ...    0.002 sec
Total time needed                          ...    0.007 sec

-------------------
DFT GRID GENERATION
-------------------

General Integration Accuracy     IntAcc      ...  4.340
Radial Grid Type                 RadialGrid  ... Gauss-Chebyshev
Angular Grid (max. acc.)         AngularGrid ... Lebedev-110
Angular grid pruning method      GridPruning ... 3 (G Style)
Weight generation scheme         WeightScheme... Becke
Basis function cutoff            BFCut       ...    1.0000e-11
Integration weight cutoff        WCut        ...    1.0000e-14
Grids for H and He will be reduced by one unit

# of grid points (after initial pruning)     ...   4712 (   0.0 sec)
# of grid points (after weights+screening)   ...   4686 (   0.0 sec)
nearest neighbour list constructed           ...    0.0 sec
Grid point re-assignment to atoms done       ...    0.0 sec
Grid point division into batches done        ...    0.0 sec
Reduced shell lists constructed in    0.0 sec

Total number of grid points                  ...     4686
Total number of batches                      ...       74
Average number of points per batch           ...       63
Average number of grid points per atom       ...     2343
Average number of shells per batch           ...    23.20 (59.49%)
Average number of basis functions per batch  ...    79.20 (56.98%)
Average number of large shells per batch     ...    17.60 (75.86%)
Average number of large basis fcns per batch ...    60.80 (76.77%)
Maximum spatial batch extension              ...  21.18, 31.13, 17.09 au
Average spatial batch extension              ...   1.09,  1.42,  0.92 au

Time for grid setup =    0.021 sec

--------------
SCF ITERATIONS
--------------
ITER       Energy         Delta-E        Max-DP      RMS-DP      [F,P]     Damp
               ***  Starting incremental Fock matrix formation  ***
  0   -860.6388593490   0.000000000000 0.02548487  0.00073748  0.0271871 0.7000
  1   -860.6400559918  -0.001196642881 0.02070775  0.00052556  0.0171395 0.7000
                               ***Turning on DIIS***
  2   -860.6409616771  -0.000905685217 0.04888977  0.00131937  0.0102909 0.0000
  3   -860.6430021463  -0.002040469243 0.04210746  0.00085074  0.0047026 0.0000
  4   -860.6430780030  -0.000075856668 0.02658405  0.00052386  0.0017758 0.0000
  5   -860.6431015314  -0.000023528483 0.00562989  0.00013336  0.0014425 0.0000
  6   -860.6431142412  -0.000012709794 0.00375089  0.00009581  0.0013757 0.0000
  7   -860.6431239887  -0.000009747449 0.00376564  0.00005258  0.0013531 0.0000
  8   -860.6431329560  -0.000008967335 0.00364128  0.00007089  0.0012818 0.0000
  9   -860.6431409233  -0.000007967309 0.00365177  0.00004371  0.0012379 0.0000
 10   -860.6431485159  -0.000007592608 0.00346221  0.00009806  0.0011866 0.0000
 11   -860.6431554124  -0.000006896472 0.00343870  0.00004048  0.0011696 0.0000
 12   -860.6431622492  -0.000006836783 0.00336564  0.00004322  0.0011393 0.0000
 13   -860.6431686261  -0.000006376866 0.00328016  0.00004062  0.0010904 0.0000
 14   -860.6431748296  -0.000006203580 0.00389235  0.00010825  0.0010716 0.0000
 15   -860.6431796997  -0.000004870018 0.00334582  0.00010085  0.0011667 0.0000
 16   -860.6431860760  -0.000006376355 0.00304166  0.00007471  0.0010373 0.0000
 17   -860.6431911851  -0.000005109107 0.17359178  0.00175683  0.0009797 0.0000
 18   -860.6432179995  -0.000026814400 0.00108594  0.00002763  0.0085624 0.0000
 19   -860.6432193122  -0.000001312688 0.00035407  0.00001052  0.0084105 0.0000
               *** Restarting incremental Fock matrix formation ***
                                   *** Resetting DIIS ***
 20   -860.6432178064   0.000001505764 0.03094319  0.00075305  0.0084684 0.0000
 21   -860.6432944728  -0.000076666385 0.01545537  0.00034197  0.0015689 0.0000
 22   -860.6432993144  -0.000004841583 0.00243165  0.00006352  0.0022995 0.0000
 23   -860.6433046319  -0.000005317515 0.03449327  0.00035525  0.0003723 0.0000
 24   -860.6433040487   0.000000583236 0.00241893  0.00004859  0.0018431 0.0000
 25   -860.6433060576  -0.000002008920 0.00015655  0.00000465  0.0012540 0.0000
 26   -860.6433063947  -0.000000337126 0.00076641  0.00001740  0.0011773 0.0000
 27   -860.6433068823  -0.000000487540 0.00984627  0.00010301  0.0009671 0.0000
 28   -860.6433086395  -0.000001757199 0.00108478  0.00001530  0.0001813 0.0000
 29   -860.6433086116   0.000000027879 0.00064131  0.00000828  0.0001794 0.0000
 30   -860.6433087133  -0.000000101743 0.00043151  0.00000617  0.0001102 0.0000
 31   -860.6433087411  -0.000000027718 0.00011186  0.00000304  0.0000387 0.0000
 32   -860.6433087014   0.000000039699 0.00009761  0.00000182  0.0000211 0.0000
                            ***DIIS convergence achieved***

               *****************************************************
               *                     SUCCESS                       *
               *           SCF CONVERGED AFTER  33 CYCLES          *
               *****************************************************

Setting up the final grid:

General Integration Accuracy     IntAcc      ...  4.670
Radial Grid Type                 RadialGrid  ... Gauss-Chebyshev
Angular Grid (max. acc.)         AngularGrid ... Lebedev-302
Angular grid pruning method      GridPruning ... 3 (G Style)
Weight generation scheme         WeightScheme... Becke
Basis function cutoff            BFCut       ...    1.0000e-11
Integration weight cutoff        WCut        ...    1.0000e-14
Grids for H and He will be reduced by one unit

# of grid points (after initial pruning)     ...  15936 (   0.0 sec)
# of grid points (after weights+screening)   ...  15882 (   0.0 sec)
nearest neighbour list constructed           ...    0.0 sec
Grid point re-assignment to atoms done       ...    0.0 sec
Grid point division into batches done        ...    0.1 sec
Reduced shell lists constructed in    0.1 sec

Total number of grid points                  ...    15882
Total number of batches                      ...      249
Average number of points per batch           ...       63
Average number of grid points per atom       ...     7941
Average number of shells per batch           ...    22.00 (56.41%)
Average number of basis functions per batch  ...    69.83 (50.24%)
Average number of large shells per batch     ...    14.17 (64.39%)
Average number of large basis fcns per batch ...    47.33 (67.78%)
Maximum spatial batch extension              ...  30.95, 34.02, 18.21 au
Average spatial batch extension              ...   0.97,  1.03,  0.71 au

Final grid set up in    0.1 sec
Final integration                            ... done (   0.1 sec)
Change in XC energy                          ...     0.000561436
Integrated number of electrons               ...    30.000039091
Previous integrated no of electrons          ...    30.000532242
Total Energy       :         -860.64274730 Eh          -23419.27977 eV
  Last Energy change         ...   -3.4213e-08  Tolerance :   1.0000e-08
  Last MAX-Density change    ...    2.7738e-05  Tolerance :   1.0000e-07
             **** THE GBW FILE WAS UPDATED (02_ScF.gbw) ****
             **** DENSITY FILE WAS UPDATED (02_ScF.scfp) ****
             **** ENERGY FILE WAS UPDATED (02_ScF.en.tmp) ****
             **** THE GBW FILE WAS UPDATED (02_ScF.gbw) ****
             **** DENSITY FILE WAS UPDATED (02_ScF.scfp) ****
Total SCF time: 0 days 0 hours 0 min 5 sec 


-------------------------------------------------------------------------------
                          DFT DISPERSION CORRECTION                            
                                                                               
                              DFTD3 V3.1  Rev 1                                
                          USING Becke-Johnson damping                          
-------------------------------------------------------------------------------
-------------------------   ----------------
Dispersion correction           -0.000614842
-------------------------   ----------------


-------------------------   --------------------
FINAL SINGLE POINT ENERGY      -860.643362141564
-------------------------   --------------------



           ************************************************************
           *        Program running with 24 parallel MPI-processes    *
           *              working on a common directory               *
           ************************************************************
------------------------------------------------------------------------------
                         ORCA SCF GRADIENT CALCULATION
------------------------------------------------------------------------------

Gradient of the Kohn-Sham DFT energy:
Kohn-Sham wavefunction type      ... RKS
Hartree-Fock exchange scaling    ...    0.000
Number of operators              ...    1
Number of atoms                  ...    2
Basis set dimensions             ...  139
Integral neglect threshold       ... 2.5e-11
Integral primitive cutoff        ... 2.5e-12

Nuclear repulsion gradient       ... done
One Electron Gradient            ... done
Pre-screening matrix             ... done
RI-J gradient                    ... done
Exchange-correlation gradient    ... done
Dispersion correction            ... done

------------------
CARTESIAN GRADIENT
------------------

   1   Sc  :   -0.000000005    0.000000000    0.004961094
   2   F   :   -0.000000001    0.000000005   -0.002587860

Difference to translation invariance:
           :   -0.0000000060    0.0000000055    0.0023732339

Norm of the cartesian gradient     ...    0.0055954873
RMS gradient                       ...    0.0022843481
MAX gradient                       ...    0.0049610943

-------
TIMINGS
-------

Total SCF gradient time            ...        4.233 sec

One electron gradient       ....       0.053 sec  (  1.3%)
Prescreening matrices       ....       3.385 sec  ( 80.0%)
RI-J Coulomb gradient       ....       0.222 sec  (  5.2%)
XC gradient                 ....       0.033 sec  (  0.8%)
------------------------------------------------------------------------------
                         ORCA GEOMETRY RELAXATION STEP
------------------------------------------------------------------------------

Reading the OPT-File                    .... done
Getting information on internals        .... done
Copying old internal coords+grads       .... done
Making the new internal coordinates     .... (new redundants).... done
Validating the new internal coordinates .... (new redundants).... done
Calculating the B-matrix                .... done
Calculating the G,G- and P matrices     .... done
Transforming gradient to internals      .... done
Projecting the internal gradient        .... done
Number of atoms                         ....   2
Number of internal coordinates          ....   1
Current Energy                          ....  -860.643362142 Eh
Current gradient norm                   ....     0.005595487 Eh/bohr
Maximum allowed component of the step   ....  0.300
Current trust radius                    ....  0.300
Updating the Hessian (BFGS)             .... done
Forming the augmented Hessian           .... done
Diagonalizing the augmented Hessian     .... done
Last element of RFO vector              ....  0.999772580
Lowest eigenvalues of augmented Hessian:
 -0.000080512
Length of the computed step             ....  0.021330623
The final length of the internal step   ....  0.021330623
Converting the step to cartesian space:
 Initial RMS(Int)=    0.0213306234
Transforming coordinates:
 Iter   0:  RMS(Cart)=    0.0061576206 RMS(Int)=    0.0213306234
 Iter   1:  RMS(Cart)=    0.0000000000 RMS(Int)=    0.0000000000
done
Storing new coordinates                 .... done

                                .--------------------.
          ----------------------|Geometry convergence|-------------------------
          Item                value                   Tolerance       Converged
          ---------------------------------------------------------------------
          Energy change      -0.0093769113            0.0000050000      NO
          RMS gradient        0.0037744774            0.0001000000      NO
          MAX gradient        0.0037744774            0.0003000000      NO
          RMS step            0.0213306234            0.0020000000      NO
          MAX step            0.0213306234            0.0040000000      NO
          ........................................................
          Max(Bonds)      0.0113      Max(Angles)    0.00
          Max(Dihed)        0.00      Max(Improp)    0.00
          ---------------------------------------------------------------------

The optimization has not yet converged - more geometry cycles are needed


    ---------------------------------------------------------------------------
                         Redundant Internal Coordinates
                            (Angstroem and degrees)

        Definition                    Value    dE/dq     Step     New-Value
    ----------------------------------------------------------------------------
     1. B(F   1,Sc  0)                1.7854 -0.003774  0.0113    1.7967   
    ----------------------------------------------------------------------------

         *************************************************************
         *                GEOMETRY OPTIMIZATION CYCLE   4            *
         *************************************************************
---------------------------------
CARTESIAN COORDINATES (ANGSTROEM)
---------------------------------
  Sc     0.000000    0.000000    0.101654
  F      0.000000    0.000000    1.898346

----------------------------
CARTESIAN COORDINATES (A.U.)
----------------------------
  NO LB      ZA    FRAG     MASS         X           Y           Z
   0 Sc   21.0000    0    44.960    0.000000    0.000000    0.192098
   1 F     9.0000    0    18.998    0.000000    0.000000    3.587355

--------------------------------
INTERNAL COORDINATES (ANGSTROEM)
--------------------------------
 Sc     0   0   0     0.000000000000     0.00000000     0.00000000
 F      1   0   0     1.796692704060     0.00000000     0.00000000

---------------------------
INTERNAL COORDINATES (A.U.)
---------------------------
 Sc     0   0   0     0.000000000000     0.00000000     0.00000000
 F      1   0   0     3.395257157488     0.00000000     0.00000000



           ************************************************************
           *        Program running with 24 parallel MPI-processes    *
           *              working on a common directory               *
           ************************************************************
 One Electron integrals                  ... done
 Pre-screening matrix                    ... done


           ************************************************************
           *        Program running with 24 parallel MPI-processes    *
           *              working on a common directory               *
           ************************************************************

Diagonalization of the overlap matrix:
Smallest eigenvalue                        ... 8.658e-05
Time for diagonalization                   ...    0.006 sec
Threshold for overlap eigenvalues          ... 1.000e-08
Number of eigenvalues below threshold      ... 0
Time for construction of square roots      ...    0.002 sec
Total time needed                          ...    0.008 sec

-------------------
DFT GRID GENERATION
-------------------

General Integration Accuracy     IntAcc      ...  4.340
Radial Grid Type                 RadialGrid  ... Gauss-Chebyshev
Angular Grid (max. acc.)         AngularGrid ... Lebedev-110
Angular grid pruning method      GridPruning ... 3 (G Style)
Weight generation scheme         WeightScheme... Becke
Basis function cutoff            BFCut       ...    1.0000e-11
Integration weight cutoff        WCut        ...    1.0000e-14
Grids for H and He will be reduced by one unit

# of grid points (after initial pruning)     ...   4712 (   0.0 sec)
# of grid points (after weights+screening)   ...   4686 (   0.0 sec)
nearest neighbour list constructed           ...    0.0 sec
Grid point re-assignment to atoms done       ...    0.0 sec
Grid point division into batches done        ...    0.0 sec
Reduced shell lists constructed in    0.0 sec

Total number of grid points                  ...     4686
Total number of batches                      ...       74
Average number of points per batch           ...       63
Average number of grid points per atom       ...     2343
Average number of shells per batch           ...    23.20 (59.49%)
Average number of basis functions per batch  ...    79.20 (56.98%)
Average number of large shells per batch     ...    17.60 (75.86%)
Average number of large basis fcns per batch ...    60.80 (76.77%)
Maximum spatial batch extension              ...  21.18, 31.13, 17.09 au
Average spatial batch extension              ...   1.09,  1.42,  0.92 au

Time for grid setup =    0.021 sec

--------------
SCF ITERATIONS
--------------
ITER       Energy         Delta-E        Max-DP      RMS-DP      [F,P]     Damp
               ***  Starting incremental Fock matrix formation  ***
  0   -860.6432828491   0.000000000000 0.00109335  0.00003315  0.0020784 0.7000
  1   -860.6432883052  -0.000005456110 0.00092080  0.00002388  0.0011655 0.7000
                               ***Turning on DIIS***
  2   -860.6432925535  -0.000004248344 0.00430710  0.00007668  0.0007907 0.0000
  3   -860.6433020944  -0.000009540892 0.00469208  0.00008953  0.0004417 0.0000
  4   -860.6433005702   0.000001524195 0.00191046  0.00004450  0.0011064 0.0000
  5   -860.6433022408  -0.000001670566 0.00227330  0.00003585  0.0003368 0.0000
  6   -860.6433029112  -0.000000670422 0.00049446  0.00001104  0.0001716 0.0000
  7   -860.6433029578  -0.000000046596 0.00024088  0.00000406  0.0000947 0.0000
  8   -860.6433030055  -0.000000047746 0.00007892  0.00000146  0.0000150 0.0000
  9   -860.6433029553   0.000000050251 0.00002997  0.00000044  0.0000033 0.0000
                            ***DIIS convergence achieved***

               *****************************************************
               *                     SUCCESS                       *
[...]

Time for grid setup =    0.025 sec

--------------
SCF ITERATIONS
--------------
ITER       Energy         Delta-E        Max-DP      RMS-DP      [F,P]     Damp
               ***  Starting incremental Fock matrix formation  ***
  0   -860.6433189402   0.000000000000 0.00000760  0.00000024  0.0000144 0.7000
  1   -860.6433189231   0.000000017113 0.00000660  0.00000017  0.0000079 0.7000
                               ***Turning on DIIS***
  2   -860.6433188853   0.000000037787 0.00003963  0.00000057  0.0000053 0.0000
  3   -860.6433188584   0.000000026907 0.00003217  0.00000064  0.0000032 0.0000
  4   -860.6433188945  -0.000000036131 0.00001293  0.00000033  0.0000078 0.0000
  5   -860.6433188798   0.000000014736 0.00000572  0.00000013  0.0000010 0.0000
                            ***DIIS convergence achieved***

               *****************************************************
               *                     SUCCESS                       *
               *           SCF CONVERGED AFTER   6 CYCLES          *
               *****************************************************

Setting up the final grid:

General Integration Accuracy     IntAcc      ...  4.670
Radial Grid Type                 RadialGrid  ... Gauss-Chebyshev
Angular Grid (max. acc.)         AngularGrid ... Lebedev-302
Angular grid pruning method      GridPruning ... 3 (G Style)
Weight generation scheme         WeightScheme... Becke
Basis function cutoff            BFCut       ...    1.0000e-11
Integration weight cutoff        WCut        ...    1.0000e-14
Grids for H and He will be reduced by one unit

# of grid points (after initial pruning)     ...  15936 (   0.0 sec)
# of grid points (after weights+screening)   ...  15882 (   0.0 sec)
nearest neighbour list constructed           ...    0.0 sec
Grid point re-assignment to atoms done       ...    0.0 sec
Grid point division into batches done        ...    0.1 sec
Reduced shell lists constructed in    0.1 sec

Total number of grid points                  ...    15882
Total number of batches                      ...      249
Average number of points per batch           ...       63
Average number of grid points per atom       ...     7941
Average number of shells per batch           ...    22.00 (56.41%)
Average number of basis functions per batch  ...    69.83 (50.24%)
Average number of large shells per batch     ...    14.17 (64.39%)
Average number of large basis fcns per batch ...    47.33 (67.78%)
Maximum spatial batch extension              ...  30.95, 34.02, 18.21 au
Average spatial batch extension              ...   0.97,  1.03,  0.71 au

Final grid set up in    0.1 sec
Final integration                            ... done (   0.1 sec)
Change in XC energy                          ...     0.000555033
Integrated number of electrons               ...    30.000039066
Previous integrated no of electrons          ...    30.000503349

----------------
TOTAL SCF ENERGY
----------------

Total Energy       :         -860.64276383 Eh          -23419.28022 eV

Components:
Nuclear Repulsion  :           55.78496551 Eh            1517.98608 eV
Electronic Energy  :         -916.42772934 Eh          -24937.26630 eV
One Electron Energy:        -1290.81160025 Eh          -35124.76935 eV
Two Electron Energy:          374.38387091 Eh           10187.50305 eV

Virial components:
Potential Energy   :        -1719.68586002 Eh          -46795.03126 eV
Kinetic Energy     :          859.04309619 Eh           23375.75105 eV
Virial Ratio       :            2.00186215


DFT components:
N(Alpha)           :       15.000019532836 electrons
N(Beta)            :       15.000019532836 electrons
N(Total)           :       30.000039065673 electrons
E(X)               :      -48.254109454743 Eh       
E(C)               :       -1.154604915601 Eh       
E(XC)              :      -49.408714370344 Eh       
DFET-embed. en.    :        0.000000000000 Eh       

---------------
SCF CONVERGENCE
---------------

  Last Energy change         ...    2.0970e-08  Tolerance :   1.0000e-08
  Last MAX-Density change    ...    2.7535e-06  Tolerance :   1.0000e-07
  Last RMS-Density change    ...    5.6742e-08  Tolerance :   5.0000e-09
  Last DIIS Error            ...    9.2977e-07  Tolerance :   5.0000e-07

             **** THE GBW FILE WAS UPDATED (02_ScF.gbw) ****
             **** DENSITY FILE WAS UPDATED (02_ScF.scfp) ****
             **** ENERGY FILE WAS UPDATED (02_ScF.en.tmp) ****
             **** THE GBW FILE WAS UPDATED (02_ScF.gbw) ****
             **** DENSITY FILE WAS UPDATED (02_ScF.scfp) ****
----------------
ORBITAL ENERGIES
----------------

  NO   OCC          E(Eh)            E(eV) 
   0   2.0000    -161.092987     -4383.5630 
   1   2.0000     -24.407101      -664.1510 
   2   2.0000     -17.396424      -473.3808 
   3   2.0000     -14.340300      -390.2194 
   4   2.0000     -14.340300      -390.2194 
   5   2.0000     -14.328175      -389.8895 
   6   2.0000      -2.071969       -56.3811 
   7   2.0000      -1.297836       -35.3159 
   8   2.0000      -1.291870       -35.1536 
   9   2.0000      -1.291870       -35.1536 
  10   2.0000      -1.058228       -28.7958 
  11   2.0000      -0.391986       -10.6665 
  12   2.0000      -0.377305       -10.2670 
  13   2.0000      -0.377305       -10.2670 
  14   2.0000      -0.156543        -4.2598 
  15   0.0000      -0.152968        -4.1625 
  16   0.0000      -0.152936        -4.1616 
  17   0.0000      -0.120872        -3.2891 
  18   0.0000      -0.120872        -3.2891 
  19   0.0000      -0.091104        -2.4791 
  20   0.0000      -0.044576        -1.2130 
  21   0.0000      -0.044576        -1.2130 
  22   0.0000      -0.003767        -0.1025 
  23   0.0000       0.002444         0.0665 
  24   0.0000       0.018139         0.4936 
  25   0.0000       0.018139         0.4936 
  26   0.0000       0.021246         0.5781 
  27   0.0000       0.021335         0.5806 
  28   0.0000       0.023376         0.6361 
  29   0.0000       0.023376         0.6361 
  30   0.0000       0.025121         0.6836 
  31   0.0000       0.039743         1.0815 
  32   0.0000       0.078253         2.1294 
  33   0.0000       0.080246         2.1836 
  34   0.0000       0.080271         2.1843 
  35   0.0000       0.083665         2.2766 
  36   0.0000       0.083665         2.2766 
  37   0.0000       0.089421         2.4333 
  38   0.0000       0.102005         2.7757 
  39   0.0000       0.102005         2.7757 
  40   0.0000       0.111242         3.0270 
  41   0.0000       0.114587         3.1181 
  42   0.0000       0.114587         3.1181 
  43   0.0000       0.114631         3.1193 
  44   0.0000       0.114631         3.1193 
  45   0.0000       0.116649         3.1742 
  46   0.0000       0.117063         3.1854 
  47   0.0000       0.157202         4.2777 
  48   0.0000       0.272927         7.4267 
  49   0.0000       0.272927         7.4267 
  50   0.0000       0.285086         7.7576 
  51   0.0000       0.313423         8.5287 
  52   0.0000       0.313472         8.5300 
  53   0.0000       0.322950         8.7879 
  54   0.0000       0.345661         9.4059 
  55   0.0000       0.345661         9.4059 
  56   0.0000       0.349040         9.4979 
  57   0.0000       0.381797        10.3892 
  58   0.0000       0.382163        10.3992 
  59   0.0000       0.388583        10.5739 
  60   0.0000       0.391155        10.6439 
  61   0.0000       0.392434        10.6787 
  62   0.0000       0.394086        10.7236 
  63   0.0000       0.394086        10.7236 
  64   0.0000       0.397979        10.8296 
  65   0.0000       0.397979        10.8296 
  66   0.0000       0.443381        12.0650 
  67   0.0000       0.443381        12.0650 
  68   0.0000       0.480369        13.0715 
  69   0.0000       0.480890        13.0857 
  70   0.0000       0.485795        13.2192 
  71   0.0000       0.485795        13.2192 
  72   0.0000       0.494407        13.4535 
  73   0.0000       0.649476        17.6731 
  74   0.0000       0.649476        17.6731 
  75   0.0000       0.656984        17.8774 
  76   0.0000       0.896155        24.3856 
  77   0.0000       0.947078        25.7713 
  78   0.0000       0.947078        25.7713 
  79   0.0000       0.955328        25.9958 
  80   0.0000       0.956685        26.0327 
  81   0.0000       0.991575        26.9821 
  82   0.0000       1.215876        33.0857 
  83   0.0000       1.215876        33.0857 
  84   0.0000       1.261693        34.3324 
  85   0.0000       1.262156        34.3450 
  86   0.0000       1.340975        36.4898 
  87   0.0000       1.407192        38.2917 
  88   0.0000       1.478082        40.2206 
  89   0.0000       1.478082        40.2206 
  90   0.0000       1.568944        42.6931 
  91   0.0000       1.568944        42.6931 
  92   0.0000       1.606408        43.7126 
  93   0.0000       1.774459        48.2855 
  94   0.0000       1.774459        48.2855 
  95   0.0000       1.778568        48.3973 
  96   0.0000       1.779985        48.4359 
  97   0.0000       1.788816        48.6762 
  98   0.0000       1.790472        48.7212 
  99   0.0000       1.826555        49.7031 
 100   0.0000       1.875143        51.0252 
 101   0.0000       1.875143        51.0252 
 102   0.0000       1.965155        53.4746 
 103   0.0000       1.965527        53.4847 
 104   0.0000       1.965622        53.4873 
 105   0.0000       1.965622        53.4873 
 106   0.0000       1.991724        54.1976 
 107   0.0000       2.097305        57.0706 
 108   0.0000       2.097305        57.0706 
 109   0.0000       2.237181        60.8768 
 110   0.0000       2.475010        67.3485 
 111   0.0000       2.637661        71.7744 
 112   0.0000       2.641255        71.8722 
 113   0.0000       2.641255        71.8722 
 114   0.0000       2.644250        71.9537 
 115   0.0000       2.813086        76.5480 
 116   0.0000       2.813086        76.5480 
 117   0.0000       2.981470        81.1299 
 118   0.0000       2.986051        81.2546 
 119   0.0000       3.151648        85.7607 
 120   0.0000       3.472284        94.4856 
 121   0.0000       3.472284        94.4856 
 122   0.0000       3.937905       107.1559 
 123   0.0000       4.953439       134.7899 
 124   0.0000       4.953439       134.7899 
 125   0.0000       5.283300       143.7659 
 126   0.0000       8.316423       226.3014 
 127   0.0000       8.316423       226.3014 
 128   0.0000       8.379158       228.0085 
 129   0.0000       8.459611       230.1977 
 130   0.0000       8.618818       234.5300 
 131   0.0000       8.618818       234.5300 
 132   0.0000       8.667334       235.8501 
 133   0.0000       8.741141       237.8585 
 134   0.0000       8.746694       238.0097 
 135   0.0000       8.834345       240.3947 
 136   0.0000       8.834345       240.3947 
 137   0.0000       8.953798       243.6452 
 138   0.0000      13.316577       362.3625 

                    ********************************
                    * MULLIKEN POPULATION ANALYSIS *
                    ********************************

-----------------------
MULLIKEN ATOMIC CHARGES
-----------------------
   0 Sc:    0.636881
   1 F :   -0.636881
Sum of atomic charges:   -0.0000000

--------------------------------
MULLIKEN REDUCED ORBITAL CHARGES
--------------------------------
  0 Scs       :     7.537563  s :     7.537563
      pz      :     4.044691  p :    12.046328
      px      :     4.000818
      py      :     4.000818
      dz2     :     0.575940  d :     0.786803
      dxz     :     0.105432
      dyz     :     0.105432
      dx2y2   :     0.000000
      dxy     :     0.000000
      f0      :     0.002997  f :    -0.003567
      f+1     :    -0.003282
      f-1     :    -0.003282
      f+2     :     0.000000
      f-2     :     0.000000
      f+3     :    -0.000000
      f-3     :    -0.000000
      g0      :     0.000778  g :    -0.004008
      g+1     :    -0.002393
      g-1     :    -0.002393
      g+2     :     0.000000
      g-2     :     0.000000
      g+3     :    -0.000000
      g-3     :    -0.000000
      g+4     :     0.000000
      g-4     :     0.000000
  1 F s       :     4.027466  s :     4.027466
      pz      :     1.801521  p :     5.584101
      px      :     1.891290
      py      :     1.891290
      dz2     :     0.007594  d :     0.022341
      dxz     :     0.007373
      dyz     :     0.007373
      dx2y2   :     0.000000
      dxy     :     0.000000
      f0      :     0.001450  f :     0.002972
      f+1     :     0.000759
      f-1     :     0.000759
      f+2     :     0.000000
      f-2     :     0.000000
      f+3     :     0.000002
      f-3     :     0.000002


                     *******************************
                     * LOEWDIN POPULATION ANALYSIS *
                     *******************************

----------------------
LOEWDIN ATOMIC CHARGES
----------------------
   0 Sc:    0.359551
   1 F :   -0.359551

-------------------------------
LOEWDIN REDUCED ORBITAL CHARGES
-------------------------------
  0 Scs       :     7.260690  s :     7.260690
      pz      :     4.041377  p :    11.974820
      px      :     3.966722
      py      :     3.966722
      dz2     :     0.716842  d :     1.042137
      dxz     :     0.162647
      dyz     :     0.162647
      dx2y2   :     0.000000
      dxy     :     0.000000
      f0      :     0.105312  f :     0.224301
      f+1     :     0.059494
      f-1     :     0.059494
      f+2     :     0.000000
      f-2     :     0.000000
      f+3     :     0.000000
      f-3     :     0.000000
      g0      :     0.062641  g :     0.138502
      g+1     :     0.037930
      g-1     :     0.037930
      g+2     :     0.000000
      g-2     :     0.000000
      g+3     :     0.000000
      g-3     :     0.000000
      g+4     :     0.000000
      g-4     :     0.000000
  1 F s       :     3.713398  s :     3.713398
      pz      :     1.944220  p :     5.417262
      px      :     1.736521
      py      :     1.736521
      dz2     :     0.131741  d :     0.195790
      dxz     :     0.032025
      dyz     :     0.032025
      dx2y2   :     0.000000
      dxy     :     0.000000
      f0      :     0.023779  f :     0.033100
      f+1     :     0.004658
      f-1     :     0.004658
      f+2     :     0.000000
      f-2     :     0.000000
      f+3     :     0.000002
      f-3     :     0.000002


                      *****************************
                      * MAYER POPULATION ANALYSIS *
                      *****************************

  NA   - Mulliken gross atomic population
  ZA   - Total nuclear charge
  QA   - Mulliken gross atomic charge
  VA   - Mayer's total valence
  BVA  - Mayer's bonded valence
  FA   - Mayer's free valence

  ATOM       NA         ZA         QA         VA         BVA        FA
  0 Sc    20.3631    21.0000     0.6369     0.8781     0.8781    -0.0000
  1 F      9.6369     9.0000    -0.6369     0.8781     0.8781    -0.0000

  Mayer bond orders larger than 0.100000
B(  0-Sc,  1-F ) :   0.8781 

-------
TIMINGS
-------

Total SCF time: 0 days 0 hours 0 min 1 sec 

Total time                  ....       1.521 sec
Sum of individual times     ....       1.369 sec  ( 90.0%)

Fock matrix formation       ....       1.195 sec  ( 78.5%)
  Split-RI-J                ....       0.875 sec  ( 73.2% of F)
  XC integration            ....       0.104 sec  (  8.7% of F)
    Basis function eval.    ....       0.018 sec  ( 17.1% of XC)
    Density eval.           ....       0.015 sec  ( 14.8% of XC)
    XC-Functional eval.     ....       0.005 sec  (  4.7% of XC)
    XC-Potential eval.      ....       0.033 sec  ( 31.8% of XC)
Diagonalization             ....       0.019 sec  (  1.2%)
Density matrix formation    ....       0.003 sec  (  0.2%)
Population analysis         ....       0.004 sec  (  0.2%)
Initial guess               ....       0.010 sec  (  0.6%)
Orbital Transformation      ....       0.000 sec  (  0.0%)
Orbital Orthonormalization  ....       0.007 sec  (  0.4%)
DIIS solution               ....       0.007 sec  (  0.5%)
Grid generation             ....       0.132 sec  (  8.7%)


-------------------------------------------------------------------------------
                          DFT DISPERSION CORRECTION                            
                                                                               
                              DFTD3 V3.1  Rev 1                                
                          USING Becke-Johnson damping                          
-------------------------------------------------------------------------------
The TPSS functional is recognized
Active option DFTDOPT                   ...         4   

molecular C6(AA) [au] = 639.223596 


            DFT-D V3
 parameters
 s6 scaling factor         :     1.0000 
 a1 scaling factor         :     0.4535 
 s8 scaling factor         :     1.9435 
 a2 scaling factor         :     4.4752 
 ad hoc parameters k1-k3   :    16.0000     1.3333    -4.0000 

 Edisp/kcal,au: -0.385813127977  -0.000614832290 
 E6   /kcal   :  -0.148105179 
 E8   /kcal   :  -0.237707949 
 % E8         :  61.612198292 

-------------------------   ----------------
Dispersion correction           -0.000614832
-------------------------   ----------------


-------------------------   --------------------
FINAL SINGLE POINT ENERGY      -860.643378657643
-------------------------   --------------------

                                *** OPTIMIZATION RUN DONE ***

                            ***************************************
                            *     ORCA property calculations      *
                            ***************************************

                                    ---------------------
                                    Active property flags
                                    ---------------------
   (+) Dipole Moment


------------------------------------------------------------------------------
                       ORCA ELECTRIC PROPERTIES CALCULATION
------------------------------------------------------------------------------

Dipole Moment Calculation                       ... on
Quadrupole Moment Calculation                   ... off
Polarizability Calculation                      ... off
GBWName                                         ... 02_ScF.gbw
Electron density file                           ... 02_ScF.scfp
The origin for moment calculation is the CENTER OF MASS  = ( 0.000000,  0.000000  1.202091)

-------------
DIPOLE MOMENT
-------------
                                X             Y             Z
Electronic contribution:      0.00000       0.00000      -0.98844
Nuclear contribution   :      0.00000       0.00000       0.30099
                        -----------------------------------------
Total Dipole Moment    :      0.00000       0.00000      -0.68745
                        -----------------------------------------
Magnitude (a.u.)       :      0.68745
Magnitude (Debye)      :      1.74735



--------------------
Rotational spectrum 
--------------------
 
Rotational constants in cm-1:     0.000000     0.392705     0.392705 
Rotational constants in MHz :     0.000000 11772.989606 11772.989606 

 Dipole components along the rotational axes: 
x,y,z [a.u.] :    -0.687446     0.000000     0.000000 
x,y,z [Debye]:    -1.747350     0.000000     0.000000 

 

Timings for individual modules:

Sum of individual times         ...       77.464 sec (=   1.291 min)
GTO integral calculation        ...       15.719 sec (=   0.262 min)  20.3 %
SCF iterations                  ...       38.533 sec (=   0.642 min)  49.7 %
SCF Gradient evaluation         ...       23.046 sec (=   0.384 min)  29.8 %
Geometry relaxation             ...        0.166 sec (=   0.003 min)   0.2 %
                             ****ORCA TERMINATED NORMALLY****
TOTAL RUN TIME: 0 days 0 hours 1 minutes 18 seconds 309 msec
