
                                 *****************
                                 * O   R   C   A *
                                 *****************

           --- An Ab Initio, DFT and Semiempirical electronic structure package ---

                  #######################################################
                  #                        -***-                        #
                  #          Department of theory and spectroscopy      #
                  #               Directorship: Frank Neese             #
                  #        Max Planck Institute fuer Kohlenforschung    #
                  #                Kaiser Wilhelm Platz 1               #
                  #                 D-45470 Muelheim/Ruhr               #
                  #                      Germany                        #
                  #                                                     #
                  #                  All rights reserved                #
                  #                        -***-                        #
                  #######################################################


                         Program Version 4.2.0 -  RELEASE  -


 With contributions from (in alphabetic order):
   Daniel Aravena         : Magnetic Suceptibility
   Michael Atanasov       : Ab Initio Ligand Field Theory (pilot matlab implementation)
   Alexander A. Auer      : GIAO ZORA, VPT2
   Ute Becker             : Parallelization
   Giovanni Bistoni       : ED, misc. LED, open-shell LED, HFLED
   Martin Brehm           : Molecular dynamics
   Dmytro Bykov           : SCF Hessian
   Vijay G. Chilkuri      : MRCI spin determinant printing, contributions to CSF-ICE
   Dipayan Datta          : RHF DLPNO-CCSD density
   Achintya Kumar Dutta   : EOM-CC, STEOM-CC
   Dmitry Ganyushin       : Spin-Orbit,Spin-Spin,Magnetic field MRCI
   Miquel Garcia          : C-PCM Hessian, Gaussian charge scheme
   Yang Guo               : DLPNO-NEVPT2, CIM, IAO-localization
   Andreas Hansen         : Spin unrestricted coupled pair/coupled cluster methods
   Benjamin Helmich-Paris : CASSCF linear response (MC-RPA)
   Lee Huntington         : MR-EOM, pCC
   Robert Izsak           : Overlap fitted RIJCOSX, COSX-SCS-MP3, EOM
   Christian Kollmar      : KDIIS, OOCD, Brueckner-CCSD(T), CCSD density
   Simone Kossmann        : Meta GGA functionals, TD-DFT gradient, OOMP2, MP2 Hessian
   Martin Krupicka        : AUTO-CI
   Lucas Lang             : DCDCAS
   Dagmar Lenk            : GEPOL surface, SMD
   Dimitrios Liakos       : Extrapolation schemes; Compound Job, initial MDCI parallelization
   Dimitrios Manganas     : Further ROCIS development; embedding schemes
   Dimitrios Pantazis     : SARC Basis sets
   Taras Petrenko         : DFT Hessian,TD-DFT gradient, ASA, ECA, R-Raman, ABS, FL, XAS/XES, NRVS
   Peter Pinski           : DLPNO-MP2, DLPNO-MP2 Gradient
   Christoph Reimann      : Effective Core Potentials
   Marius Retegan         : Local ZFS, SOC
   Christoph Riplinger    : Optimizer, TS searches, QM/MM, DLPNO-CCSD(T), (RO)-DLPNO pert. Triples
   Tobias Risthaus        : Range-separated hybrids, TD-DFT gradient, RPA, STAB
   Michael Roemelt        : Original ROCIS implementation
   Masaaki Saitow         : Open-shell DLPNO-CCSD energy and density
   Barbara Sandhoefer     : DKH picture change effects
   Avijit Sen             : IP-ROCIS
   Kantharuban Sivalingam : CASSCF convergence, NEVPT2, FIC-MRCI
   Bernardo de Souza      : ESD, SOC TD-DFT
   Georgi Stoychev        : AutoAux, RI-MP2 NMR
   Willem Van den Heuvel  : Paramagnetic NMR
   Boris Wezisla          : Elementary symmetry handling
   Frank Wennmohs         : Technical directorship


 We gratefully acknowledge several colleagues who have allowed us to
 interface, adapt or use parts of their codes:
   Stefan Grimme, W. Hujo, H. Kruse,             : VdW corrections, initial TS optimization,
                  C. Bannwarth                     DFT functionals, gCP, sTDA/sTD-DF
   Ed Valeev, F. Pavosevic, A. Kumar             : LibInt (2-el integral package), F12 methods
   Garnet Chan, S. Sharma, J. Yang, R. Olivares  : DMRG
   Ulf Ekstrom                                   : XCFun DFT Library
   Mihaly Kallay                                 : mrcc  (arbitrary order and MRCC methods)
   Andreas Klamt, Michael Diedenhofen            : otool_cosmo (COSMO solvation model)
   Jiri Pittner, Ondrej Demel                    : Mk-CCSD
   Frank Weinhold                                : gennbo (NPA and NBO analysis)
   Christopher J. Cramer and Donald G. Truhlar   : smd solvation model
   Lars Goerigk                                  : TD-DFT with DH, B97 family of functionals
   V. Asgeirsson, H. Jonsson                     : NEB implementation
   FAccTs GmbH                                   : IRC, NEB, NEB-TS, Multilevel, MM, QM/MM, CI optimization
   S Lehtola, MJT Oliveira, MAL Marques          : LibXC Library


 Your calculation uses the libint2 library for the computation of 2-el integrals
 For citations please refer to: http://libint.valeyev.net

 Your ORCA version has been built with support for libXC version: 4.2.3
 For citations please refer to: https://tddft.org/programs/libxc/

 This ORCA versions uses:
   CBLAS   interface :  Fast vector & matrix operations
   LAPACKE interface :  Fast linear algebra routines
   SCALAPACK package :  Parallel linear algebra routines


Your calculation utilizes the atom-pairwise dispersion correction
with the Becke-Johnson damping scheme (D3BJ)
Cite in your paper:
S.Grimme, S.Ehrlich, L.Goerigk, J Comput Chem, (2011), 32, 1456–1465 
S.Grimme, J.Antony, S.Ehrlich and H.Krieg, J.Chem.Phys., 132, (2010), 154104 
   

----- Orbital basis set information -----
Your calculation utilizes the basis: aug-cc-pVTZ 
    H, B-Ne : Obtained from the ccRepo (grant-hill.group.shef.ac.uk/ccrepo) Feb. 2017
              R. A. Kendall, T. H. Dunning, Jr., R. J. Harrison, J. Chem. Phys. 96, 6796 (1992)
         He : Obtained from the ccRepo (grant-hill.group.shef.ac.uk/ccrepo) Feb. 2017
              D. E. Woon, T. H. Dunning, Jr., J. Chem. Phys. 100, 2975 (1994)
  Li-Be, Na : Obtained from the ccRepo (grant-hill.group.shef.ac.uk/ccrepo) Feb. 2017
              B. P. Prascher, D. E. Woon, K. A. Peterson, T. H. Dunning, Jr., A. K. Wilson, Theor. Chem. Acc. 128, 69 (2011)
         Mg : Obtained from the Peterson Research Group Website (tyr0.chem.wsu.edu/~kipeters) Feb. 2017
              B. P. Prascher, D. E. Woon, K. A. Peterson, T. H. Dunning, Jr., A. K. Wilson, Theor. Chem. Acc. 128, 69 (2011)
      Al-Ar : Obtained from the ccRepo (grant-hill.group.shef.ac.uk/ccrepo) Feb. 2017
              D. E. Woon, T. H. Dunning, Jr., J. Chem. Phys. 98, 1358 (1993)
      Sc-Zn : Obtained from the ccRepo (grant-hill.group.shef.ac.uk/ccrepo) Feb. 2017
              N. B. Balabanov, K. A. Peterson, J. Chem. Phys. 123, 064107 (2005)
              N. B. Balabanov, K. A. Peterson, J. Chem. Phys. 125, 074110 (2006)
      Ga-Kr : Obtained from the ccRepo (grant-hill.group.shef.ac.uk/ccrepo) Feb. 2017
              A. K. Wilson, D. E. Woon, K. A. Peterson, T. H. Dunning, Jr., J. Chem. Phys. 110, 7667 (1999)
     Ag, Au : Obtained from the Peterson Research Group Website (tyr0.chem.wsu.edu/~kipeters) Feb. 2017
              K. A. Peterson, C. Puzzarini, Theor. Chem. Acc. 114, 283 (2005)

----- AuxJ basis set information -----
Your calculation utilizes the auxiliary basis: def2/J
   F. Weigend, Phys. Chem. Chem. Phys. 8, 1057 (2006).

================================================================================
                                        WARNINGS
                       Please study these warnings very carefully!
================================================================================


WARNING: Geometry Optimization
  ===> : Switching off AutoStart
         For restart on a previous wavefunction, please use MOREAD

INFO   : the flag for use of LIBINT has been found!

================================================================================
                                       INPUT FILE
================================================================================
NAME = 03_ScCl.in
|  1> #
|  2> # 03_ScCl tpss/aug-cc-pvtz
|  3> #
|  4> ! tpss d3bj aug-cc-pvtz def2/j opt xyzfile
|  5> 
|  6> *xyz 0 1
|  7> Sc 0.0 0.0 0.0
|  8> Cl 0.0 0.0 2.0
|  9> *
| 10> 
| 11> %pal
| 12> nprocs 24
| 13> end
| 14> 
| 15> 
| 16>                          ****END OF INPUT****
================================================================================

                       *****************************
                       * Geometry Optimization Run *
                       *****************************

Geometry optimization settings:
Update method            Update   .... BFGS
Choice of coordinates    CoordSys .... Z-matrix Internals
Initial Hessian          InHess   .... Almoef's Model

Convergence Tolerances:
Energy Change            TolE     ....  5.0000e-06 Eh
Max. Gradient            TolMAXG  ....  3.0000e-04 Eh/bohr
RMS Gradient             TolRMSG  ....  1.0000e-04 Eh/bohr
Max. Displacement        TolMAXD  ....  4.0000e-03 bohr
RMS Displacement         TolRMSD  ....  2.0000e-03 bohr
Strict Convergence                ....  False
------------------------------------------------------------------------------
                        ORCA OPTIMIZATION COORDINATE SETUP
------------------------------------------------------------------------------

The optimization will be done in new redundant internal coordinates
Making redundant internal coordinates   ...  (new redundants) done
Evaluating the initial hessian          ...  (Almloef) done
Evaluating the coordinates              ...  done
Calculating the B-matrix                .... done
Calculating the G-matrix                .... done
Diagonalizing the G-matrix              .... done
The first mode is                       ....    0
The number of degrees of freedom        ....    1

    -----------------------------------------------------------------
                    Redundant Internal Coordinates


    -----------------------------------------------------------------
         Definition                    Initial Value    Approx d2E/dq
    -----------------------------------------------------------------
      1. B(Cl  1,Sc  0)                  2.0000         1.508840   
    -----------------------------------------------------------------

Number of atoms                         .... 2
Number of degrees of freedom            .... 1

         *************************************************************
         *                GEOMETRY OPTIMIZATION CYCLE   1            *
         *************************************************************
---------------------------------
CARTESIAN COORDINATES (ANGSTROEM)
---------------------------------
  Sc     0.000000    0.000000    0.000000
  Cl     0.000000    0.000000    2.000000

----------------------------
CARTESIAN COORDINATES (A.U.)
----------------------------
  NO LB      ZA    FRAG     MASS         X           Y           Z
   0 Sc   21.0000    0    44.960    0.000000    0.000000    0.000000
   1 Cl   17.0000    0    35.453    0.000000    0.000000    3.779452

--------------------------------
INTERNAL COORDINATES (ANGSTROEM)
--------------------------------
 Sc     0   0   0     0.000000000000     0.00000000     0.00000000
 Cl     1   0   0     2.000000000000     0.00000000     0.00000000

---------------------------
INTERNAL COORDINATES (A.U.)
---------------------------
 Sc     0   0   0     0.000000000000     0.00000000     0.00000000
 Cl     1   0   0     3.779452267843     0.00000000     0.00000000

---------------------
BASIS SET INFORMATION
---------------------
There are 2 groups of distinct atoms

 Group   1 Type Sc  : 116s77p23d3f2g contracted to 8s7p5d3f2g pattern {19191919191911/151515151511/77711/111/11}
 Group   2 Type Cl  : 42s17p3d2f contracted to 6s5p3d2f pattern {131313111/77111/111/11}

Atom   0Sc   basis set group =>   1
Atom   1Cl   basis set group =>   2
---------------------------------
AUXILIARY/J BASIS SET INFORMATION
---------------------------------
There are 2 groups of distinct atoms

 Group   1 Type Sc  : 19s5p5d3f3g contracted to 8s5p5d2f3g pattern {121111111/11111/11111/21/111}
 Group   2 Type Cl  : 14s5p5d2f1g contracted to 8s4p3d1f1g pattern {71111111/2111/311/2/1}

Atom   0Sc   basis set group =>   1
Atom   1Cl   basis set group =>   2


           ************************************************************
           *        Program running with 24 parallel MPI-processes    *
           *              working on a common directory               *
           ************************************************************
------------------------------------------------------------------------------
                           ORCA GTO INTEGRAL CALCULATION
                           -- RI-GTO INTEGRALS CHOSEN --
------------------------------------------------------------------------------

                         BASIS SET STATISTICS AND STARTUP INFO

Gaussian basis set:
 # of primitive gaussian shells          ...  285
 # of primitive gaussian functions       ...  623
 # of contracted shells                  ...   41
 # of contracted basis functions         ...  143
 Highest angular momentum                ...    4
 Maximum contraction depth               ...   19
Auxiliary gaussian basis set:
 # of primitive gaussian shells          ...   62
 # of primitive gaussian functions       ...  184
 # of contracted shells                  ...   40
 # of contracted aux-basis functions     ...  140
 Highest angular momentum                ...    4
 Maximum contraction depth               ...   12
Ratio of auxiliary to basis functions    ...  0.98
Integral package used                  ... LIBINT
 One Electron integrals                  ... done
 Ordering auxiliary basis shells         ... done
 Integral threshhold             Thresh  ...  2.500e-11
 Primitive cut-off               TCut    ...  2.500e-12
 Pre-screening matrix                    ... done
 Shell pair data                         ... 
 Ordering of the shell pairs             ... done (   0.000 sec) 861 of 861 pairs
 Determination of significant pairs      ... done (   0.000 sec)
 Creation of shell pair data             ... done (   0.001 sec)
 Storage of shell pair data              ... done (   0.002 sec)
 Shell pair data done in (   0.003 sec)
 Computing two index integrals           ... done
 Cholesky decomposition of the V-matrix  ... done


Timings:
 Total evaluation time                   ...   2.588 sec (  0.043 min)
 One electron matrix time                ...   0.048 sec (  0.001 min) =  1.9%
 Schwartz matrix evaluation time         ...   2.511 sec (  0.042 min) = 97.0%
 Two index repulsion integral time       ...   0.001 sec (  0.000 min) =  0.0%
 Cholesky decomposition of V             ...   0.001 sec (  0.000 min) =  0.0%
 Three index repulsion integral time     ...   0.000 sec (  0.000 min) =  0.0%



           ************************************************************
           *        Program running with 24 parallel MPI-processes    *
           *              working on a common directory               *
           ************************************************************
-------------------------------------------------------------------------------
                                 ORCA SCF
-------------------------------------------------------------------------------

------------
SCF SETTINGS
------------
Hamiltonian:
 Density Functional     Method          .... DFT(GTOs)
 Exchange Functional    Exchange        .... TPSS
 Correlation Functional Correlation     .... TPSS
 LDA part of GGA corr.  LDAOpt          .... PW91-LDA
 Gradients option       PostSCFGGA      .... off
   Density functional embedding theory  .... OFF
   NL short-range parameter             ....  5.000000
 RI-approximation to the Coulomb term is turned on
   Number of auxiliary basis functions  .... 140


General Settings:
 Integral files         IntName         .... 03_ScCl
 Hartree-Fock type      HFTyp           .... RHF
 Total Charge           Charge          ....    0
 Multiplicity           Mult            ....    1
 Number of Electrons    NEL             ....   38
 Basis Dimension        Dim             ....  143
 Nuclear Repulsion      ENuc            ....     94.4581316816 Eh

Convergence Acceleration:
 DIIS                   CNVDIIS         .... on
   Start iteration      DIISMaxIt       ....    12
   Startup error        DIISStart       ....  0.200000
   # of expansion vecs  DIISMaxEq       ....     5
   Bias factor          DIISBfac        ....   1.050
   Max. coefficient     DIISMaxC        ....  10.000
 Newton-Raphson         CNVNR           .... off
 SOSCF                  CNVSOSCF        .... off
 Level Shifting         CNVShift        .... on
   Level shift para.    LevelShift      ....    0.2500
   Turn off err/grad.   ShiftErr        ....    0.0010
 Zerner damping         CNVZerner       .... off
 Static damping         CNVDamp         .... on
   Fraction old density DampFac         ....    0.7000
   Max. Damping (<1)    DampMax         ....    0.9800
   Min. Damping (>=0)   DampMin         ....    0.0000
   Turn off err/grad.   DampErr         ....    0.1000
 Fernandez-Rico         CNVRico         .... off

SCF Procedure:
 Maximum # iterations   MaxIter         ....   125
 SCF integral mode      SCFMode         .... Direct
   Integral package                     .... LIBINT
 Reset frequency        DirectResetFreq ....    20
 Integral Threshold     Thresh          ....  2.500e-11 Eh
 Primitive CutOff       TCut            ....  2.500e-12 Eh

Convergence Tolerance:
 Convergence Check Mode ConvCheckMode   .... Total+1el-Energy
 Convergence forced     ConvForced      .... 0
 Energy Change          TolE            ....  1.000e-08 Eh
 1-El. energy change                    ....  1.000e-05 Eh
 DIIS Error             TolErr          ....  5.000e-07


Diagonalization of the overlap matrix:
Smallest eigenvalue                        ... 6.313e-05
Time for diagonalization                   ...    0.005 sec
Threshold for overlap eigenvalues          ... 1.000e-08
Number of eigenvalues below threshold      ... 0
Time for construction of square roots      ...    0.003 sec
Total time needed                          ...    0.008 sec

-------------------
DFT GRID GENERATION
-------------------

General Integration Accuracy     IntAcc      ...  4.340
Radial Grid Type                 RadialGrid  ... Gauss-Chebyshev
Angular Grid (max. acc.)         AngularGrid ... Lebedev-110
Angular grid pruning method      GridPruning ... 3 (G Style)
Weight generation scheme         WeightScheme... Becke
Basis function cutoff            BFCut       ...    1.0000e-11
Integration weight cutoff        WCut        ...    1.0000e-14
Grids for H and He will be reduced by one unit

# of grid points (after initial pruning)     ...   4816 (   0.0 sec)
# of grid points (after weights+screening)   ...   4789 (   0.0 sec)
nearest neighbour list constructed           ...    0.0 sec
Grid point re-assignment to atoms done       ...    0.0 sec
Grid point division into batches done        ...    0.0 sec
Reduced shell lists constructed in    0.0 sec

Total number of grid points                  ...     4789
Total number of batches                      ...       76
Average number of points per batch           ...       63
Average number of grid points per atom       ...     2394
Average number of shells per batch           ...    24.80 (60.49%)
Average number of basis functions per batch  ...    88.80 (62.10%)
Average number of large shells per batch     ...    20.00 (80.65%)
Average number of large basis fcns per batch ...    68.00 (76.58%)
Maximum spatial batch extension              ...  20.56, 31.13, 17.28 au
Average spatial batch extension              ...   0.99,  1.37,  0.91 au

Time for grid setup =    0.026 sec

------------------------------
INITIAL GUESS: MODEL POTENTIAL
------------------------------
Loading Hartree-Fock densities                     ... done
Calculating cut-offs                               ... done
Setting up the integral package                    ... done
Initializing the effective Hamiltonian             ... done
Starting the Coulomb interaction                   ... done (   0.0 sec)
Reading the grid                                   ... done
Mapping shells                                     ... done
Starting the XC term evaluation                    ... done (   0.0 sec)
  promolecular density results
     # of electrons  =     37.999606542
     EX              =    -65.284954116
     EC              =     -1.505496797
     EX+EC           =    -66.790450913
Transforming the Hamiltonian                       ... done (   0.0 sec)
Diagonalizing the Hamiltonian                      ... done (   0.0 sec)
Back transforming the eigenvectors                 ... done (   0.0 sec)
Now organizing SCF variables                       ... done
                      ------------------
                      INITIAL GUESS DONE (   0.2 sec)
                      ------------------
--------------
SCF ITERATIONS
--------------
ITER       Energy         Delta-E        Max-DP      RMS-DP      [F,P]     Damp
               ***  Starting incremental Fock matrix formation  ***
  0  -1220.9245209067   0.000000000000 0.18871813  0.00330788  0.0971882 0.7000
  1  -1220.9449731516  -0.020452244932 0.11209170  0.00186293  0.0502010 0.7000
                               ***Turning on DIIS***
  2  -1220.9542523190  -0.009279167430 0.15707763  0.00288241  0.0204482 0.0000
  3  -1220.9653055220  -0.011053202981 0.11831521  0.00193503  0.0334379 0.0000
  4  -1220.9696906016  -0.004385079618 0.08074873  0.00121569  0.0120777 0.0000
  5  -1220.9702822947  -0.000591693103 0.04074226  0.00076027  0.0039600 0.0000
  6  -1220.9703829448  -0.000100650100 0.04854565  0.00064733  0.0031036 0.0000
  7  -1220.9704209755  -0.000038030700 0.02788590  0.00036747  0.0011402 0.0000
  8  -1220.9704300188  -0.000009043266 0.03424899  0.00042609  0.0006434 0.0000
  9  -1220.9704355149  -0.000005496061 0.00915975  0.00013509  0.0006990 0.0000
 10  -1220.9704367551  -0.000001240253 0.00187660  0.00003149  0.0001924 0.0000
 11  -1220.9704368643  -0.000000109198 0.00028558  0.00000531  0.0000549 0.0000
 12  -1220.9704368936  -0.000000029266 0.00015200  0.00000255  0.0000353 0.0000
 13  -1220.9704368941  -0.000000000494 0.00009385  0.00000150  0.0000100 0.0000
 14  -1220.9704368800   0.000000014048 0.00002941  0.00000054  0.0000032 0.0000
 15  -1220.9704368930  -0.000000012924 0.00001664  0.00000029  0.0000015 0.0000
                            ***DIIS convergence achieved***

               *****************************************************
               *                     SUCCESS                       *
               *           SCF CONVERGED AFTER  16 CYCLES          *
               *****************************************************

Setting up the final grid:

General Integration Accuracy     IntAcc      ...  4.670
Radial Grid Type                 RadialGrid  ... Gauss-Chebyshev
Angular Grid (max. acc.)         AngularGrid ... Lebedev-302
Angular grid pruning method      GridPruning ... 3 (G Style)
Weight generation scheme         WeightScheme... Becke
Basis function cutoff            BFCut       ...    1.0000e-11
Integration weight cutoff        WCut        ...    1.0000e-14
Grids for H and He will be reduced by one unit

# of grid points (after initial pruning)     ...  16402 (   0.0 sec)
# of grid points (after weights+screening)   ...  16372 (   0.0 sec)
nearest neighbour list constructed           ...    0.0 sec
Grid point re-assignment to atoms done       ...    0.0 sec
Grid point division into batches done        ...    0.1 sec
Reduced shell lists constructed in    0.1 sec

Total number of grid points                  ...    16372
Total number of batches                      ...      257
Average number of points per batch           ...       63
Average number of grid points per atom       ...     8186
Average number of shells per batch           ...    22.08 (53.86%)
Average number of basis functions per batch  ...    69.75 (48.78%)
Average number of large shells per batch     ...    14.00 (63.40%)
Average number of large basis fcns per batch ...    45.17 (64.76%)
Maximum spatial batch extension              ...  26.53, 30.11, 18.89 au
Average spatial batch extension              ...   0.92,  0.92,  0.75 au

Final grid set up in    0.1 sec
Final integration                            ... done (   0.0 sec)
Change in XC energy                          ...    -0.000491517
Integrated number of electrons               ...    37.999981220
Previous integrated no of electrons          ...    37.999491270

----------------
TOTAL SCF ENERGY
----------------

Total Energy       :        -1220.97092839 Eh          -33224.30805 eV

Components:
Nuclear Repulsion  :           94.45813168 Eh            2570.33644 eV
Electronic Energy  :        -1315.42906007 Eh          -35794.64449 eV
One Electron Energy:        -1864.44668646 Eh          -50734.17361 eV
Two Electron Energy:          549.01762639 Eh           14939.52913 eV

Virial components:
Potential Energy   :        -2439.82997097 Eh          -66391.14877 eV
Kinetic Energy     :         1218.85904258 Eh           33166.84072 eV
Virial Ratio       :            2.00173267


DFT components:
N(Alpha)           :       18.999990610137 electrons
N(Beta)            :       18.999990610137 electrons
N(Total)           :       37.999981220274 electrons
E(X)               :      -65.780409098025 Eh       
E(C)               :       -1.520868313822 Eh       
E(XC)              :      -67.301277411846 Eh       
DFET-embed. en.    :        0.000000000000 Eh       

---------------
SCF CONVERGENCE
---------------

  Last Energy change         ...    1.7208e-08  Tolerance :   1.0000e-08
  Last MAX-Density change    ...    1.0941e-05  Tolerance :   1.0000e-07
  Last RMS-Density change    ...    2.0412e-07  Tolerance :   5.0000e-09
  Last DIIS Error            ...    5.4003e-07  Tolerance :   5.0000e-07

             **** THE GBW FILE WAS UPDATED (03_ScCl.gbw) ****
             **** DENSITY FILE WAS UPDATED (03_ScCl.scfp) ****
             **** ENERGY FILE WAS UPDATED (03_ScCl.en.tmp) ****
             **** THE GBW FILE WAS UPDATED (03_ScCl.gbw) ****
             **** DENSITY FILE WAS UPDATED (03_ScCl.scfp) ****
----------------
ORBITAL ENERGIES
----------------

  NO   OCC          E(Eh)            E(eV) 
   0   2.0000    -161.051911     -4382.4453 
   1   2.0000    -101.024363     -2749.0127 
   2   2.0000     -17.347169      -472.0405 
   3   2.0000     -14.291854      -388.9011 
   4   2.0000     -14.291854      -388.9011 
   5   2.0000     -14.278013      -388.5245 
   6   2.0000      -9.256488      -251.8818 
   7   2.0000      -7.030806      -191.3180 
   8   2.0000      -7.030626      -191.3131 
   9   2.0000      -7.030626      -191.3131 
  10   2.0000      -2.033418       -55.3321 
  11   2.0000      -1.255194       -34.1556 
  12   2.0000      -1.255194       -34.1556 
  13   2.0000      -1.253682       -34.1144 
  14   2.0000      -0.756937       -20.5973 
  15   2.0000      -0.340315        -9.2605 
  16   2.0000      -0.329626        -8.9696 
  17   2.0000      -0.329626        -8.9696 
  18   2.0000      -0.145680        -3.9642 
  19   0.0000      -0.127261        -3.4629 
  20   0.0000      -0.127115        -3.4590 
  21   0.0000      -0.102372        -2.7857 
  22   0.0000      -0.102372        -2.7857 
  23   0.0000      -0.082319        -2.2400 
  24   0.0000      -0.036706        -0.9988 
  25   0.0000      -0.036706        -0.9988 
  26   0.0000      -0.002661        -0.0724 
  27   0.0000       0.003483         0.0948 
  28   0.0000       0.017081         0.4648 
  29   0.0000       0.017081         0.4648 
  30   0.0000       0.021007         0.5716 
  31   0.0000       0.021019         0.5720 
  32   0.0000       0.022380         0.6090 
  33   0.0000       0.022380         0.6090 
  34   0.0000       0.022842         0.6216 
  35   0.0000       0.045585         1.2404 
  36   0.0000       0.076559         2.0833 
  37   0.0000       0.081183         2.2091 
  38   0.0000       0.081324         2.2129 
  39   0.0000       0.086980         2.3669 
  40   0.0000       0.086980         2.3669 
  41   0.0000       0.088886         2.4187 
  42   0.0000       0.095367         2.5951 
  43   0.0000       0.095367         2.5951 
  44   0.0000       0.104131         2.8335 
  45   0.0000       0.104845         2.8530 
  46   0.0000       0.105269         2.8645 
  47   0.0000       0.114819         3.1244 
  48   0.0000       0.114819         3.1244 
  49   0.0000       0.115735         3.1493 
  50   0.0000       0.115735         3.1493 
  51   0.0000       0.149132         4.0581 
  52   0.0000       0.161759         4.4017 
  53   0.0000       0.161759         4.4017 
  54   0.0000       0.188007         5.1159 
  55   0.0000       0.253249         6.8912 
  56   0.0000       0.253292         6.8924 
  57   0.0000       0.259760         7.0684 
  58   0.0000       0.312583         8.5058 
  59   0.0000       0.312583         8.5058 
  60   0.0000       0.329104         8.9554 
  61   0.0000       0.331025         9.0076 
  62   0.0000       0.341231         9.2854 
  63   0.0000       0.354213         9.6386 
  64   0.0000       0.354213         9.6386 
  65   0.0000       0.359512         9.7828 
  66   0.0000       0.385871        10.5001 
  67   0.0000       0.385871        10.5001 
  68   0.0000       0.392415        10.6781 
  69   0.0000       0.395918        10.7735 
  70   0.0000       0.396625        10.7927 
  71   0.0000       0.398828        10.8527 
  72   0.0000       0.407225        11.0812 
  73   0.0000       0.408113        11.1053 
  74   0.0000       0.408113        11.1053 
  75   0.0000       0.465125        12.6567 
  76   0.0000       0.465125        12.6567 
  77   0.0000       0.474077        12.9003 
  78   0.0000       0.489069        13.3082 
  79   0.0000       0.489069        13.3082 
  80   0.0000       0.576754        15.6943 
  81   0.0000       0.576754        15.6943 
  82   0.0000       0.590461        16.0673 
  83   0.0000       0.595654        16.2086 
  84   0.0000       0.597437        16.2571 
  85   0.0000       0.694488        18.8980 
  86   0.0000       0.694488        18.8980 
  87   0.0000       0.733638        19.9633 
  88   0.0000       0.734824        19.9956 
  89   0.0000       0.752164        20.4674 
  90   0.0000       0.881960        23.9994 
  91   0.0000       0.939937        25.5770 
  92   0.0000       0.939937        25.5770 
  93   0.0000       1.008730        27.4489 
  94   0.0000       1.039347        28.2821 
  95   0.0000       1.039347        28.2821 
  96   0.0000       1.180943        32.1351 
  97   0.0000       1.188899        32.3516 
  98   0.0000       1.188899        32.3516 
  99   0.0000       1.204418        32.7739 
 100   0.0000       1.206273        32.8244 
 101   0.0000       1.304861        35.5071 
 102   0.0000       1.305862        35.5343 
 103   0.0000       1.416544        38.5461 
 104   0.0000       1.554639        42.3039 
 105   0.0000       1.554639        42.3039 
 106   0.0000       1.601226        43.5716 
 107   0.0000       1.601226        43.5716 
 108   0.0000       1.618065        44.0298 
 109   0.0000       1.789933        48.7065 
 110   0.0000       1.793489        48.8033 
 111   0.0000       1.798575        48.9417 
 112   0.0000       1.798575        48.9417 
 113   0.0000       1.938924        52.7608 
 114   0.0000       1.943510        52.8856 
 115   0.0000       1.944418        52.9103 
 116   0.0000       1.952664        53.1347 
 117   0.0000       1.991307        54.1862 
 118   0.0000       1.991307        54.1862 
 119   0.0000       2.016724        54.8778 
 120   0.0000       2.017825        54.9078 
 121   0.0000       2.081631        56.6441 
 122   0.0000       2.081631        56.6441 
 123   0.0000       2.112733        57.4904 
 124   0.0000       2.122154        57.7467 
 125   0.0000       2.122154        57.7467 
 126   0.0000       2.237270        60.8792 
 127   0.0000       2.247098        61.1466 
 128   0.0000       2.316114        63.0247 
 129   0.0000       2.316114        63.0247 
 130   0.0000       2.416441        65.7547 
 131   0.0000       2.617510        71.2261 
 132   0.0000       2.647381        72.0389 
 133   0.0000       2.647381        72.0389 
 134   0.0000       2.742678        74.6321 
 135   0.0000       2.742678        74.6321 
 136   0.0000       2.837431        77.2104 
 137   0.0000       2.848347        77.5075 
 138   0.0000       2.879860        78.3650 
 139   0.0000       3.038880        82.6921 
 140   0.0000       3.038880        82.6921 
 141   0.0000       3.847011       104.6825 
 142   0.0000       6.496573       176.7807 

                    ********************************
                    * MULLIKEN POPULATION ANALYSIS *
                    ********************************

-----------------------
MULLIKEN ATOMIC CHARGES
-----------------------
   0 Sc:    0.136827
   1 Cl:   -0.136827
Sum of atomic charges:   -0.0000000

--------------------------------
MULLIKEN REDUCED ORBITAL CHARGES
--------------------------------
  0 Scs       :     7.464093  s :     7.464093
      pz      :     4.066429  p :    12.147636
      px      :     4.040604
      py      :     4.040604
      dz2     :     0.802240  d :     1.191888
      dxz     :     0.194824
      dyz     :     0.194824
      dx2y2   :     0.000000
      dxy     :     0.000000
      f0      :     0.005336  f :     0.047725
      f+1     :     0.021194
      f-1     :     0.021194
      f+2     :     0.000000
      f-2     :     0.000000
      f+3     :     0.000000
      f-3     :     0.000000
      g0      :     0.000014  g :     0.011832
      g+1     :     0.005908
      g-1     :     0.005908
      g+2     :     0.000000
      g-2     :     0.000000
      g+3     :     0.000000
      g-3     :     0.000000
      g+4     :     0.000001
      g-4     :     0.000000
  1 Cls       :     5.999560  s :     5.999560
      pz      :     3.643848  p :    11.103995
      px      :     3.730074
      py      :     3.730074
      dz2     :     0.014195  d :     0.026179
      dxz     :     0.005992
      dyz     :     0.005992
      dx2y2   :    -0.000000
      dxy     :     0.000000
      f0      :     0.004283  f :     0.007092
      f+1     :     0.001404
      f-1     :     0.001404
      f+2     :     0.000000
      f-2     :     0.000000
      f+3     :     0.000000
      f-3     :     0.000000


                     *******************************
                     * LOEWDIN POPULATION ANALYSIS *
                     *******************************

----------------------
LOEWDIN ATOMIC CHARGES
----------------------
   0 Sc:   -0.187098
   1 Cl:    0.187098

-------------------------------
LOEWDIN REDUCED ORBITAL CHARGES
-------------------------------
  0 Scs       :     7.070908  s :     7.070908
      pz      :     4.146319  p :    12.074738
      px      :     3.964209
      py      :     3.964209
      dz2     :     0.986757  d :     1.508531
      dxz     :     0.260887
      dyz     :     0.260887
      dx2y2   :     0.000000
      dxy     :     0.000000
      f0      :     0.125224  f :     0.332275
      f+1     :     0.103526
      f-1     :     0.103526
      f+2     :     0.000000
      f-2     :     0.000000
      f+3     :     0.000000
      f-3     :     0.000000
      g0      :     0.072140  g :     0.200646
      g+1     :     0.064252
      g-1     :     0.064252
      g+2     :     0.000000
      g-2     :     0.000000
      g+3     :     0.000000
      g-3     :     0.000000
      g+4     :     0.000001
      g-4     :     0.000000
  1 Cls       :     5.520914  s :     5.520914
      pz      :     3.781578  p :    10.826826
      px      :     3.522624
      py      :     3.522624
      dz2     :     0.203331  d :     0.311926
      dxz     :     0.054298
      dyz     :     0.054298
      dx2y2   :     0.000000
      dxy     :     0.000000
      f0      :     0.092828  f :     0.153236
      f+1     :     0.030203
      f-1     :     0.030203
      f+2     :     0.000000
      f-2     :     0.000000
      f+3     :     0.000000
      f-3     :     0.000000


                      *****************************
                      * MAYER POPULATION ANALYSIS *
                      *****************************

  NA   - Mulliken gross atomic population
  ZA   - Total nuclear charge
  QA   - Mulliken gross atomic charge
  VA   - Mayer's total valence
  BVA  - Mayer's bonded valence
  FA   - Mayer's free valence

  ATOM       NA         ZA         QA         VA         BVA        FA
  0 Sc    20.8632    21.0000     0.1368     1.7125     1.7125    -0.0000
  1 Cl    17.1368    17.0000    -0.1368     1.7125     1.7125    -0.0000

  Mayer bond orders larger than 0.100000
B(  0-Sc,  1-Cl) :   1.7125 

-------
TIMINGS
-------

Total SCF time: 0 days 0 hours 0 min 3 sec 

Total time                  ....       3.067 sec
Sum of individual times     ....       2.942 sec  ( 95.9%)

Fock matrix formation       ....       2.600 sec  ( 84.8%)
  Split-RI-J                ....       2.256 sec  ( 86.8% of F)
  XC integration            ....       0.239 sec  (  9.2% of F)
    Basis function eval.    ....       0.039 sec  ( 16.2% of XC)
    Density eval.           ....       0.034 sec  ( 14.2% of XC)
    XC-Functional eval.     ....       0.010 sec  (  4.0% of XC)
    XC-Potential eval.      ....       0.075 sec  ( 31.4% of XC)
Diagonalization             ....       0.044 sec  (  1.4%)
Density matrix formation    ....       0.006 sec  (  0.2%)
Population analysis         ....       0.004 sec  (  0.1%)
Initial guess               ....       0.127 sec  (  4.2%)
Orbital Transformation      ....       0.000 sec  (  0.0%)
Orbital Orthonormalization  ....       0.000 sec  (  0.0%)
DIIS solution               ....       0.021 sec  (  0.7%)
Grid generation             ....       0.140 sec  (  4.6%)


-------------------------------------------------------------------------------
                          DFT DISPERSION CORRECTION                            
                                                                               
                              DFTD3 V3.1  Rev 1                                
                          USING Becke-Johnson damping                          
-------------------------------------------------------------------------------
The TPSS functional is recognized
Active option DFTDOPT                   ...         4   

molecular C6(AA) [au] = 1025.945669 


            DFT-D V3
 parameters
 s6 scaling factor         :     1.0000 
 a1 scaling factor         :     0.4535 
 s8 scaling factor         :     1.9435 
 a2 scaling factor         :     4.4752 
 ad hoc parameters k1-k3   :    16.0000     1.3333    -4.0000 

 Edisp/kcal,au: -1.093799052629  -0.001743079557 
 E6   /kcal   :  -0.357150310 
 E8   /kcal   :  -0.736648742 
 % E8         :  67.347721747 

-------------------------   ----------------
Dispersion correction           -0.001743080
-------------------------   ----------------


-------------------------   --------------------
FINAL SINGLE POINT ENERGY     -1220.972671472600
-------------------------   --------------------



           ************************************************************
           *        Program running with 24 parallel MPI-processes    *
           *              working on a common directory               *
           ************************************************************
------------------------------------------------------------------------------
                         ORCA SCF GRADIENT CALCULATION
------------------------------------------------------------------------------

Gradient of the Kohn-Sham DFT energy:
Kohn-Sham wavefunction type      ... RKS
Hartree-Fock exchange scaling    ...    0.000
Number of operators              ...    1
Number of atoms                  ...    2
Basis set dimensions             ...  143
Integral neglect threshold       ... 2.5e-11
Integral primitive cutoff        ... 2.5e-12

Nuclear repulsion gradient       ... done
One Electron Gradient            ... done
Pre-screening matrix             ... done
RI-J gradient                    ... done
Exchange-correlation gradient    ... done
Dispersion correction            ... done

------------------
CARTESIAN GRADIENT
------------------

   1   Sc  :   -0.000000005    0.000000008    0.106605449
   2   Cl  :    0.000000004   -0.000000003   -0.106190893

Difference to translation invariance:
           :   -0.0000000015    0.0000000052    0.0004145557

Norm of the cartesian gradient     ...    0.1504700220
RMS gradient                       ...    0.0614291292
MAX gradient                       ...    0.1066054489

-------
TIMINGS
-------

Total SCF gradient time            ...        4.586 sec

One electron gradient       ....       0.054 sec  (  1.2%)
Prescreening matrices       ....       3.695 sec  ( 80.6%)
RI-J Coulomb gradient       ....       0.284 sec  (  6.2%)
XC gradient                 ....       0.033 sec  (  0.7%)
------------------------------------------------------------------------------
                         ORCA GEOMETRY RELAXATION STEP
------------------------------------------------------------------------------

Reading the OPT-File                    .... done
Getting information on internals        .... done
Copying old internal coords+grads       .... done
Making the new internal coordinates     .... (new redundants).... done
Validating the new internal coordinates .... (new redundants).... done
Calculating the B-matrix                .... done
Calculating the G,G- and P matrices     .... done
Transforming gradient to internals      .... done
Projecting the internal gradient        .... done
Number of atoms                         ....   2
Number of internal coordinates          ....   1
Current Energy                          .... -1220.972671473 Eh
Current gradient norm                   ....     0.150470022 Eh/bohr
Maximum allowed component of the step   ....  0.300
Current trust radius                    ....  0.300
Evaluating the initial hessian          ....  (Almloef) done
Projecting the Hessian                  .... done
Forming the augmented Hessian           .... done
Diagonalizing the augmented Hessian     .... done
Last element of RFO vector              ....  0.997547187
Lowest eigenvalues of augmented Hessian:
 -0.007465888
Length of the computed step             ....  0.070169324
The final length of the internal step   ....  0.070169324
Converting the step to cartesian space:
 Initial RMS(Int)=    0.0701693239
Transforming coordinates:
 Iter   0:  RMS(Cart)=    0.0202561390 RMS(Int)=    0.0701693239
 Iter   1:  RMS(Cart)=    0.0000000000 RMS(Int)=    0.0000000000
done
Storing new coordinates                 .... done

                                .--------------------.
          ----------------------|Geometry convergence|-------------------------
          Item                value                   Tolerance       Converged
          ---------------------------------------------------------------------
          RMS gradient        0.1063981710            0.0001000000      NO
          MAX gradient        0.1063981710            0.0003000000      NO
          RMS step            0.0701693239            0.0020000000      NO
          MAX step            0.0701693239            0.0040000000      NO
          ........................................................
          Max(Bonds)      0.0371      Max(Angles)    0.00
          Max(Dihed)        0.00      Max(Improp)    0.00
          ---------------------------------------------------------------------

The optimization has not yet converged - more geometry cycles are needed


    ---------------------------------------------------------------------------
                         Redundant Internal Coordinates
                            (Angstroem and degrees)

        Definition                    Value    dE/dq     Step     New-Value
    ----------------------------------------------------------------------------
     1. B(Cl  1,Sc  0)                2.0000 -0.106398  0.0371    2.0371   
    ----------------------------------------------------------------------------

         *************************************************************
         *                GEOMETRY OPTIMIZATION CYCLE   2            *
         *************************************************************
---------------------------------
CARTESIAN COORDINATES (ANGSTROEM)
---------------------------------
  Sc     0.000000    0.000000   -0.018566
  Cl     0.000000    0.000000    2.018566

----------------------------
CARTESIAN COORDINATES (A.U.)
----------------------------
  NO LB      ZA    FRAG     MASS         X           Y           Z
   0 Sc   21.0000    0    44.960    0.000000    0.000000   -0.035085
   1 Cl   17.0000    0    35.453    0.000000    0.000000    3.814537

--------------------------------
INTERNAL COORDINATES (ANGSTROEM)
--------------------------------
 Sc     0   0   0     0.000000000000     0.00000000     0.00000000
 Cl     1   0   0     2.037132006936     0.00000000     0.00000000

---------------------------
INTERNAL COORDINATES (A.U.)
---------------------------
 Sc     0   0   0     0.000000000000     0.00000000     0.00000000
 Cl     1   0   0     3.849621591754     0.00000000     0.00000000



           ************************************************************
           *        Program running with 24 parallel MPI-processes    *
           *              working on a common directory               *
           ************************************************************
 One Electron integrals                  ... done
 Pre-screening matrix                    ... done


           ************************************************************
           *        Program running with 24 parallel MPI-processes    *
           *              working on a common directory               *
           ************************************************************

Diagonalization of the overlap matrix:
Smallest eigenvalue                        ... 6.449e-05
Time for diagonalization                   ...    0.006 sec
Threshold for overlap eigenvalues          ... 1.000e-08
Number of eigenvalues below threshold      ... 0
Time for construction of square roots      ...    0.002 sec
Total time needed                          ...    0.008 sec

-------------------
DFT GRID GENERATION
-------------------

General Integration Accuracy     IntAcc      ...  4.340
Radial Grid Type                 RadialGrid  ... Gauss-Chebyshev
Angular Grid (max. acc.)         AngularGrid ... Lebedev-110
Angular grid pruning method      GridPruning ... 3 (G Style)
Weight generation scheme         WeightScheme... Becke
Basis function cutoff            BFCut       ...    1.0000e-11
Integration weight cutoff        WCut        ...    1.0000e-14
Grids for H and He will be reduced by one unit

# of grid points (after initial pruning)     ...   4816 (   0.0 sec)
# of grid points (after weights+screening)   ...   4790 (   0.0 sec)
nearest neighbour list constructed           ...    0.0 sec
Grid point re-assignment to atoms done       ...    0.0 sec
Grid point division into batches done        ...    0.0 sec
Reduced shell lists constructed in    0.0 sec

Total number of grid points                  ...     4790
Total number of batches                      ...       76
Average number of points per batch           ...       63
Average number of grid points per atom       ...     2395
Average number of shells per batch           ...    24.80 (60.49%)
Average number of basis functions per batch  ...    88.80 (62.10%)
Average number of large shells per batch     ...    20.00 (80.65%)
Average number of large basis fcns per batch ...    68.00 (76.58%)
Maximum spatial batch extension              ...  20.56, 31.13, 17.28 au
Average spatial batch extension              ...   0.99,  1.37,  0.91 au

Time for grid setup =    0.029 sec

--------------
SCF ITERATIONS
--------------
ITER       Energy         Delta-E        Max-DP      RMS-DP      [F,P]     Damp
               ***  Starting incremental Fock matrix formation  ***
  0  -1220.9766674354   0.000000000000 0.00387599  0.00012073  0.0128199 0.7000
  1  -1220.9767370314  -0.000069595974 0.00325107  0.00010334  0.0089847 0.7000
                               ***Turning on DIIS***
  2  -1220.9767853336  -0.000048302215 0.00878193  0.00025735  0.0062903 0.0000
  3  -1220.9768922358  -0.000106902123 0.00213938  0.00005085  0.0016188 0.0000
  4  -1220.9768956496  -0.000003413861 0.00471972  0.00009851  0.0009730 0.0000
  5  -1220.9768987126  -0.000003062999 0.00272521  0.00005787  0.0003758 0.0000
  6  -1220.9768990485  -0.000000335920 0.00106992  0.00001620  0.0002559 0.0000
  7  -1220.9768992215  -0.000000172985 0.00043450  0.00000634  0.0000534 0.0000
  8  -1220.9768992359  -0.000000014377 0.00009879  0.00000213  0.0000145 0.0000
  9  -1220.9768992243   0.000000011583 0.00005922  0.00000105  0.0000070 0.0000
 10  -1220.9768992374  -0.000000013116 0.00002248  0.00000043  0.0000027 0.0000
 11  -1220.9768992328   0.000000004597 0.00001534  0.00000024  0.0000011 0.0000
                            ***DIIS convergence achieved***

               *****************************************************
               *                     SUCCESS                       *
               *           SCF CONVERGED AFTER  12 CYCLES          *
               *****************************************************

Setting up the final grid:

General Integration Accuracy     IntAcc      ...  4.670
Radial Grid Type                 RadialGrid  ... Gauss-Chebyshev
Angular Grid (max. acc.)         AngularGrid ... Lebedev-302
Angular grid pruning method      GridPruning ... 3 (G Style)
Weight generation scheme         WeightScheme... Becke
Basis function cutoff            BFCut       ...    1.0000e-11
Integration weight cutoff        WCut        ...    1.0000e-14
Grids for H and He will be reduced by one unit

# of grid points (after initial pruning)     ...  16402 (   0.0 sec)
# of grid points (after weights+screening)   ...  16372 (   0.0 sec)
nearest neighbour list constructed           ...    0.0 sec
Grid point re-assignment to atoms done       ...    0.0 sec
Grid point division into batches done        ...    0.1 sec
Reduced shell lists constructed in    0.1 sec

Total number of grid points                  ...    16372
Total number of batches                      ...      257
Average number of points per batch           ...       63
Average number of grid points per atom       ...     8186
Average number of shells per batch           ...    22.17 (54.07%)
Average number of basis functions per batch  ...    69.83 (48.83%)
Average number of large shells per batch     ...    14.33 (64.66%)
Average number of large basis fcns per batch ...    46.50 (66.59%)
Maximum spatial batch extension              ...  26.53, 26.21, 18.63 au
Average spatial batch extension              ...   0.92,  0.90,  0.69 au

Final grid set up in    0.1 sec
Final integration                            ... done (   0.0 sec)
Change in XC energy                          ...    -0.000543599
Integrated number of electrons               ...    37.999988205
Previous integrated no of electrons          ...    37.999529550
Total Energy       :        -1220.97744283 Eh          -33224.48532 eV
  Last Energy change         ...    5.4868e-09  Tolerance :   1.0000e-08
  Last MAX-Density change    ...    6.8437e-06  Tolerance :   1.0000e-07
             **** THE GBW FILE WAS UPDATED (03_ScCl.gbw) ****
             **** DENSITY FILE WAS UPDATED (03_ScCl.scfp) ****
             **** ENERGY FILE WAS UPDATED (03_ScCl.en.tmp) ****
             **** THE GBW FILE WAS UPDATED (03_ScCl.gbw) ****
             **** DENSITY FILE WAS UPDATED (03_ScCl.scfp) ****
Total SCF time: 0 days 0 hours 0 min 2 sec 


-------------------------------------------------------------------------------
                          DFT DISPERSION CORRECTION                            
                                                                               
                              DFTD3 V3.1  Rev 1                                
                          USING Becke-Johnson damping                          
-------------------------------------------------------------------------------
-------------------------   ----------------
Dispersion correction           -0.001742513
-------------------------   ----------------


-------------------------   --------------------
FINAL SINGLE POINT ENERGY     -1220.979185338711
-------------------------   --------------------



           ************************************************************
           *        Program running with 24 parallel MPI-processes    *
           *              working on a common directory               *
           ************************************************************
------------------------------------------------------------------------------
                         ORCA SCF GRADIENT CALCULATION
------------------------------------------------------------------------------

Gradient of the Kohn-Sham DFT energy:
Kohn-Sham wavefunction type      ... RKS
Hartree-Fock exchange scaling    ...    0.000
Number of operators              ...    1
Number of atoms                  ...    2
Basis set dimensions             ...  143
Integral neglect threshold       ... 2.5e-11
Integral primitive cutoff        ... 2.5e-12

Nuclear repulsion gradient       ... done
One Electron Gradient            ... done
Pre-screening matrix             ... done
RI-J gradient                    ... done
Exchange-correlation gradient    ... done
Dispersion correction            ... done

------------------
CARTESIAN GRADIENT
------------------

   1   Sc  :    0.000000003   -0.000000005    0.082662812
   2   Cl  :   -0.000000007    0.000000002   -0.082123561

Difference to translation invariance:
           :   -0.0000000039   -0.0000000024    0.0005392505

Norm of the cartesian gradient     ...    0.1165221856
RMS gradient                       ...    0.0475699831
MAX gradient                       ...    0.0826628117

-------
TIMINGS
-------

Total SCF gradient time            ...        4.577 sec

One electron gradient       ....       0.061 sec  (  1.3%)
Prescreening matrices       ....       3.681 sec  ( 80.4%)
RI-J Coulomb gradient       ....       0.277 sec  (  6.1%)
XC gradient                 ....       0.033 sec  (  0.7%)
------------------------------------------------------------------------------
                         ORCA GEOMETRY RELAXATION STEP
------------------------------------------------------------------------------

Reading the OPT-File                    .... done
Getting information on internals        .... done
Copying old internal coords+grads       .... done
Making the new internal coordinates     .... (new redundants).... done
Validating the new internal coordinates .... (new redundants).... done
Calculating the B-matrix                .... done
Calculating the G,G- and P matrices     .... done
Transforming gradient to internals      .... done
Projecting the internal gradient        .... done
Number of atoms                         ....   2
Number of internal coordinates          ....   1
Current Energy                          .... -1220.979185339 Eh
Current gradient norm                   ....     0.116522186 Eh/bohr
Maximum allowed component of the step   ....  0.300
Current trust radius                    ....  0.300
Updating the Hessian (BFGS)             .... done
Forming the augmented Hessian           .... done
Diagonalizing the augmented Hessian     .... done
Last element of RFO vector              ....  0.974917539
Lowest eigenvalues of augmented Hessian:
 -0.018809748
Length of the computed step             ....  0.228292517
The final length of the internal step   ....  0.228292517
Converting the step to cartesian space:
 Initial RMS(Int)=    0.2282925172
Transforming coordinates:
 Iter   0:  RMS(Cart)=    0.0577350269 RMS(Int)=    0.2000000000
 Iter   1:  RMS(Cart)=    0.0081673462 RMS(Int)=    0.0282925172
 Iter   2:  RMS(Cart)=    0.0000000000 RMS(Int)=    0.0000000000
done
Storing new coordinates                 .... done

                                .--------------------.
          ----------------------|Geometry convergence|-------------------------
          Item                value                   Tolerance       Converged
          ---------------------------------------------------------------------
          Energy change      -0.0065138661            0.0000050000      NO
          RMS gradient        0.0823931864            0.0001000000      NO
          MAX gradient        0.0823931864            0.0003000000      NO
          RMS step            0.2282925172            0.0020000000      NO
          MAX step            0.2282925172            0.0040000000      NO
          ........................................................
          Max(Bonds)      0.1208      Max(Angles)    0.00
          Max(Dihed)        0.00      Max(Improp)    0.00
          ---------------------------------------------------------------------

The optimization has not yet converged - more geometry cycles are needed


    ---------------------------------------------------------------------------
                         Redundant Internal Coordinates
                            (Angstroem and degrees)

        Definition                    Value    dE/dq     Step     New-Value
    ----------------------------------------------------------------------------
     1. B(Cl  1,Sc  0)                2.0371 -0.082393  0.1208    2.1579   
    ----------------------------------------------------------------------------

         *************************************************************
         *                GEOMETRY OPTIMIZATION CYCLE   3            *
         *************************************************************
---------------------------------
CARTESIAN COORDINATES (ANGSTROEM)
---------------------------------
  Sc     0.000000    0.000000   -0.078970
  Cl     0.000000    0.000000    2.078970

----------------------------
CARTESIAN COORDINATES (A.U.)
----------------------------
  NO LB      ZA    FRAG     MASS         X           Y           Z
   0 Sc   21.0000    0    44.960    0.000000    0.000000   -0.149231
   1 Cl   17.0000    0    35.453    0.000000    0.000000    3.928683

--------------------------------
INTERNAL COORDINATES (ANGSTROEM)
--------------------------------
 Sc     0   0   0     0.000000000000     0.00000000     0.00000000
 Cl     1   0   0     2.157939203881     0.00000000     0.00000000

---------------------------
INTERNAL COORDINATES (A.U.)
---------------------------
 Sc     0   0   0     0.000000000000     0.00000000     0.00000000
 Cl     1   0   0     4.077914108986     0.00000000     0.00000000



           ************************************************************
           *        Program running with 24 parallel MPI-processes    *
           *              working on a common directory               *
           ************************************************************
 One Electron integrals                  ... done
 Pre-screening matrix                    ... done


           ************************************************************
           *        Program running with 24 parallel MPI-processes    *
           *              working on a common directory               *
           ************************************************************

Diagonalization of the overlap matrix:
Smallest eigenvalue                        ... 6.874e-05
Time for diagonalization                   ...    0.004 sec
Threshold for overlap eigenvalues          ... 1.000e-08
Number of eigenvalues below threshold      ... 0
Time for construction of square roots      ...    0.003 sec
Total time needed                          ...    0.007 sec

-------------------
DFT GRID GENERATION
-------------------

General Integration Accuracy     IntAcc      ...  4.340
Radial Grid Type                 RadialGrid  ... Gauss-Chebyshev
Angular Grid (max. acc.)         AngularGrid ... Lebedev-110
Angular grid pruning method      GridPruning ... 3 (G Style)
Weight generation scheme         WeightScheme... Becke
Basis function cutoff            BFCut       ...    1.0000e-11
Integration weight cutoff        WCut        ...    1.0000e-14
Grids for H and He will be reduced by one unit

# of grid points (after initial pruning)     ...   4816 (   0.0 sec)
# of grid points (after weights+screening)   ...   4791 (   0.0 sec)
nearest neighbour list constructed           ...    0.0 sec
Grid point re-assignment to atoms done       ...    0.0 sec
Grid point division into batches done        ...    0.0 sec
Reduced shell lists constructed in    0.0 sec

Total number of grid points                  ...     4791
Total number of batches                      ...       76
Average number of points per batch           ...       63
Average number of grid points per atom       ...     2396
Average number of shells per batch           ...    24.80 (60.49%)
Average number of basis functions per batch  ...    88.80 (62.10%)
Average number of large shells per batch     ...    20.00 (80.65%)
Average number of large basis fcns per batch ...    68.00 (76.58%)
Maximum spatial batch extension              ...  20.56, 31.13, 17.50 au
Average spatial batch extension              ...   0.99,  1.36,  0.92 au

Time for grid setup =    0.022 sec

--------------
SCF ITERATIONS
--------------
ITER       Energy         Delta-E        Max-DP      RMS-DP      [F,P]     Damp
               ***  Starting incremental Fock matrix formation  ***
  0  -1220.9866350026   0.000000000000 0.01406800  0.00037241  0.0418043 0.7000
  1  -1220.9871765277  -0.000541525100 0.01207005  0.00031590  0.0292950 0.7000
                               ***Turning on DIIS***
  2  -1220.9875611208  -0.000384593034 0.02768112  0.00076555  0.0205074 0.0000
  3  -1220.9884187374  -0.000857616594 0.00741488  0.00013404  0.0045603 0.0000
  4  -1220.9884474303  -0.000028692984 0.01098498  0.00022762  0.0026597 0.0000
  5  -1220.9884697623  -0.000022331993 0.00936945  0.00015930  0.0007773 0.0000
  6  -1220.9884726476  -0.000002885241 0.00298511  0.00004959  0.0003021 0.0000
  7  -1220.9884721951   0.000000452435 0.00144190  0.00002534  0.0004684 0.0000
  8  -1220.9884730200  -0.000000824851 0.00027884  0.00000484  0.0000367 0.0000
  9  -1220.9884730199   0.000000000084 0.00013829  0.00000292  0.0000271 0.0000
 10  -1220.9884730432  -0.000000023287 0.00005885  0.00000073  0.0000063 0.0000
                 **** Energy Check signals convergence ****

               *****************************************************
               *                     SUCCESS                       *
               *           SCF CONVERGED AFTER  11 CYCLES          *
               *****************************************************

Setting up the final grid:

General Integration Accuracy     IntAcc      ...  4.670
Radial Grid Type                 RadialGrid  ... Gauss-Chebyshev
Angular Grid (max. acc.)         AngularGrid ... Lebedev-302
Angular grid pruning method      GridPruning ... 3 (G Style)
Weight generation scheme         WeightScheme... Becke
Basis function cutoff            BFCut       ...    1.0000e-11
Integration weight cutoff        WCut        ...    1.0000e-14
Grids for H and He will be reduced by one unit

# of grid points (after initial pruning)     ...  16402 (   0.0 sec)
# of grid points (after weights+screening)   ...  16374 (   0.0 sec)
nearest neighbour list constructed           ...    0.0 sec
Grid point re-assignment to atoms done       ...    0.0 sec
Grid point division into batches done        ...    0.1 sec
Reduced shell lists constructed in    0.1 sec

Total number of grid points                  ...    16374
Total number of batches                      ...      257
Average number of points per batch           ...       63
Average number of grid points per atom       ...     8187
Average number of shells per batch           ...    21.75 (53.05%)
Average number of basis functions per batch  ...    68.08 (47.61%)
Average number of large shells per batch     ...    14.08 (64.75%)
Average number of large basis fcns per batch ...    45.25 (66.46%)
Maximum spatial batch extension              ...  26.53, 26.21, 19.04 au
Average spatial batch extension              ...   0.92,  0.90,  0.70 au

Final grid set up in    0.1 sec
Final integration                            ... done (   0.1 sec)
Change in XC energy                          ...    -0.000300819
Integrated number of electrons               ...    37.999998639
Previous integrated no of electrons          ...    37.999903779
Total Energy       :        -1220.98877386 Eh          -33224.79365 eV
  Last Energy change         ...    1.4620e-09  Tolerance :   1.0000e-08
  Last MAX-Density change    ...    2.1791e-05  Tolerance :   1.0000e-07
             **** THE GBW FILE WAS UPDATED (03_ScCl.gbw) ****
             **** DENSITY FILE WAS UPDATED (03_ScCl.scfp) ****
             **** ENERGY FILE WAS UPDATED (03_ScCl.en.tmp) ****
             **** THE GBW FILE WAS UPDATED (03_ScCl.gbw) ****
             **** DENSITY FILE WAS UPDATED (03_ScCl.scfp) ****
Total SCF time: 0 days 0 hours 0 min 2 sec 


-------------------------------------------------------------------------------
                          DFT DISPERSION CORRECTION                            
                                                                               
                              DFTD3 V3.1  Rev 1                                
                          USING Becke-Johnson damping                          
-------------------------------------------------------------------------------
-------------------------   ----------------
Dispersion correction           -0.001741422
-------------------------   ----------------


-------------------------   --------------------
FINAL SINGLE POINT ENERGY     -1220.990515282133
-------------------------   --------------------



           ************************************************************
           *        Program running with 24 parallel MPI-processes    *
           *              working on a common directory               *
           ************************************************************
------------------------------------------------------------------------------
                         ORCA SCF GRADIENT CALCULATION
------------------------------------------------------------------------------

Gradient of the Kohn-Sham DFT energy:
Kohn-Sham wavefunction type      ... RKS
Hartree-Fock exchange scaling    ...    0.000
Number of operators              ...    1
Number of atoms                  ...    2
Basis set dimensions             ...  143
Integral neglect threshold       ... 2.5e-11
Integral primitive cutoff        ... 2.5e-12

Nuclear repulsion gradient       ... done
One Electron Gradient            ... done
Pre-screening matrix             ... done
RI-J gradient                    ... done
Exchange-correlation gradient    ... done
Dispersion correction            ... done

------------------
CARTESIAN GRADIENT
------------------

   1   Sc  :    0.000000003   -0.000000009    0.024966535
   2   Cl  :   -0.000000006    0.000000007   -0.024169916

Difference to translation invariance:
           :   -0.0000000023   -0.0000000018    0.0007966194

Norm of the cartesian gradient     ...    0.0347492835
RMS gradient                       ...    0.0141863356
MAX gradient                       ...    0.0249665351

-------
TIMINGS
-------

Total SCF gradient time            ...        4.553 sec

One electron gradient       ....       0.064 sec  (  1.4%)
Prescreening matrices       ....       3.674 sec  ( 80.7%)
RI-J Coulomb gradient       ....       0.260 sec  (  5.7%)
XC gradient                 ....       0.032 sec  (  0.7%)
------------------------------------------------------------------------------
                         ORCA GEOMETRY RELAXATION STEP
------------------------------------------------------------------------------

Reading the OPT-File                    .... done
Getting information on internals        .... done
Copying old internal coords+grads       .... done
Making the new internal coordinates     .... (new redundants).... done
Validating the new internal coordinates .... (new redundants).... done
Calculating the B-matrix                .... done
Calculating the G,G- and P matrices     .... done
Transforming gradient to internals      .... done
Projecting the internal gradient        .... done
Number of atoms                         ....   2
Number of internal coordinates          ....   1
Current Energy                          .... -1220.990515282 Eh
Current gradient norm                   ....     0.034749283 Eh/bohr
Maximum allowed component of the step   ....  0.300
Current trust radius                    ....  0.300
Updating the Hessian (BFGS)             .... done
Forming the augmented Hessian           .... done
Diagonalizing the augmented Hessian     .... done
Last element of RFO vector              ....  0.995414190
Lowest eigenvalues of augmented Hessian:
 -0.002360992
Length of the computed step             ....  0.096099412
The final length of the internal step   ....  0.096099412
Converting the step to cartesian space:
 Initial RMS(Int)=    0.0960994119
Transforming coordinates:
 Iter   0:  RMS(Cart)=    0.0277415107 RMS(Int)=    0.0960994119
 Iter   1:  RMS(Cart)=    0.0000000000 RMS(Int)=    0.0000000000
done
Storing new coordinates                 .... done

                                .--------------------.
          ----------------------|Geometry convergence|-------------------------
          Item                value                   Tolerance       Converged
          ---------------------------------------------------------------------
          Energy change      -0.0113299434            0.0000050000      NO
          RMS gradient        0.0245682254            0.0001000000      NO
          MAX gradient        0.0245682254            0.0003000000      NO
          RMS step            0.0960994119            0.0020000000      NO
          MAX step            0.0960994119            0.0040000000      NO
          ........................................................
          Max(Bonds)      0.0509      Max(Angles)    0.00
          Max(Dihed)        0.00      Max(Improp)    0.00
          ---------------------------------------------------------------------

The optimization has not yet converged - more geometry cycles are needed


    ---------------------------------------------------------------------------
                         Redundant Internal Coordinates
                            (Angstroem and degrees)

        Definition                    Value    dE/dq     Step     New-Value
    ----------------------------------------------------------------------------
     1. B(Cl  1,Sc  0)                2.1579 -0.024568  0.0509    2.2088   
    ----------------------------------------------------------------------------

         *************************************************************
         *                GEOMETRY OPTIMIZATION CYCLE   4            *
         *************************************************************
---------------------------------
CARTESIAN COORDINATES (ANGSTROEM)
---------------------------------
  Sc     0.000000    0.000000   -0.104396
  Cl     0.000000    0.000000    2.104396

----------------------------
CARTESIAN COORDINATES (A.U.)
----------------------------
  NO LB      ZA    FRAG     MASS         X           Y           Z
   0 Sc   21.0000    0    44.960    0.000000    0.000000   -0.197281
   1 Cl   17.0000    0    35.453    0.000000    0.000000    3.976733

--------------------------------
INTERNAL COORDINATES (ANGSTROEM)
--------------------------------
 Sc     0   0   0     0.000000000000     0.00000000     0.00000000
 Cl     1   0   0     2.208792822390     0.00000000     0.00000000

---------------------------
INTERNAL COORDINATES (A.U.)
---------------------------
 Sc     0   0   0     0.000000000000     0.00000000     0.00000000
 Cl     1   0   0     4.174013520889     0.00000000     0.00000000



           ************************************************************
           *        Program running with 24 parallel MPI-processes    *
           *              working on a common directory               *
           ************************************************************
 One Electron integrals                  ... done
 Pre-screening matrix                    ... done


           ************************************************************
           *        Program running with 24 parallel MPI-processes    *
           *              working on a common directory               *
           ************************************************************

Diagonalization of the overlap matrix:
Smallest eigenvalue                        ... 7.052e-05
Time for diagonalization                   ...    0.006 sec
Threshold for overlap eigenvalues          ... 1.000e-08
Number of eigenvalues below threshold      ... 0
Time for construction of square roots      ...    0.002 sec
Total time needed                          ...    0.008 sec

-------------------
DFT GRID GENERATION
-------------------

General Integration Accuracy     IntAcc      ...  4.340
Radial Grid Type                 RadialGrid  ... Gauss-Chebyshev
Angular Grid (max. acc.)         AngularGrid ... Lebedev-110
Angular grid pruning method      GridPruning ... 3 (G Style)
Weight generation scheme         WeightScheme... Becke
Basis function cutoff            BFCut       ...    1.0000e-11
Integration weight cutoff        WCut        ...    1.0000e-14
Grids for H and He will be reduced by one unit

# of grid points (after initial pruning)     ...   4816 (   0.0 sec)
# of grid points (after weights+screening)   ...   4791 (   0.0 sec)
nearest neighbour list constructed           ...    0.0 sec
Grid point re-assignment to atoms done       ...    0.0 sec
Grid point division into batches done        ...    0.0 sec
Reduced shell lists constructed in    0.0 sec

Total number of grid points                  ...     4791
Total number of batches                      ...       76
Average number of points per batch           ...       63
Average number of grid points per atom       ...     2396
Average number of shells per batch           ...    24.80 (60.49%)
Average number of basis functions per batch  ...    88.80 (62.10%)
Average number of large shells per batch     ...    20.00 (80.65%)
Average number of large basis fcns per batch ...    68.00 (76.58%)
Maximum spatial batch extension              ...  20.56, 31.13, 17.50 au
Average spatial batch extension              ...   0.99,  1.36,  0.92 au

Time for grid setup =    0.021 sec

--------------
SCF ITERATIONS
--------------
ITER       Energy         Delta-E        Max-DP      RMS-DP      [F,P]     Damp
               ***  Starting incremental Fock matrix formation  ***
  0  -1220.9896041519   0.000000000000 0.00659769  0.00015532  0.0164583 0.7000
  1  -1220.9896734524  -0.000069300492 0.00566661  0.00013066  0.0115330 0.7000
                               ***Turning on DIIS***
  2  -1220.9897237737  -0.000050321312 0.01344127  0.00031386  0.0080731 0.0000
  3  -1220.9898367483  -0.000112974568 0.00288322  0.00006137  0.0016246 0.0000
  4  -1220.9898409483  -0.000004200005 0.00304983  0.00007046  0.0008603 0.0000
  5  -1220.9898431429  -0.000002194549 0.00134592  0.00003577  0.0003678 0.0000
  6  -1220.9898433844  -0.000000241509 0.00097733  0.00001275  0.0002956 0.0000
  7  -1220.9898435506  -0.000000166237 0.00070720  0.00001175  0.0001314 0.0000
  8  -1220.9898436140  -0.000000063444 0.00024577  0.00000499  0.0000714 0.0000
  9  -1220.9898435968   0.000000017280 0.00005812  0.00000088  0.0000152 0.0000
 10  -1220.9898436230  -0.000000026224 0.00001636  0.00000034  0.0000024 0.0000
                 **** Energy Check signals convergence ****

               *****************************************************
               *                     SUCCESS                       *
               *           SCF CONVERGED AFTER  11 CYCLES          *
               *****************************************************

Setting up the final grid:

General Integration Accuracy     IntAcc      ...  4.670
Radial Grid Type                 RadialGrid  ... Gauss-Chebyshev
Angular Grid (max. acc.)         AngularGrid ... Lebedev-302
Angular grid pruning method      GridPruning ... 3 (G Style)
Weight generation scheme         WeightScheme... Becke
Basis function cutoff            BFCut       ...    1.0000e-11
Integration weight cutoff        WCut        ...    1.0000e-14
Grids for H and He will be reduced by one unit

# of grid points (after initial pruning)     ...  16402 (   0.0 sec)
# of grid points (after weights+screening)   ...  16374 (   0.0 sec)
nearest neighbour list constructed           ...    0.0 sec
Grid point re-assignment to atoms done       ...    0.0 sec
Grid point division into batches done        ...    0.1 sec
Reduced shell lists constructed in    0.1 sec

Total number of grid points                  ...    16374
Total number of batches                      ...      257
Average number of points per batch           ...       63
Average number of grid points per atom       ...     8187
Average number of shells per batch           ...    21.75 (53.05%)
Average number of basis functions per batch  ...    68.08 (47.61%)
Average number of large shells per batch     ...    13.92 (63.98%)
Average number of large basis fcns per batch ...    45.75 (67.20%)
Maximum spatial batch extension              ...  26.53, 26.21, 19.04 au
Average spatial batch extension              ...   0.92,  0.90,  0.70 au

Final grid set up in    0.1 sec
Final integration                            ... done (   0.1 sec)
Change in XC energy                          ...    -0.000309055
Integrated number of electrons               ...    37.999985675
Previous integrated no of electrons          ...    38.000042903
Total Energy       :        -1220.99015268 Eh          -33224.83117 eV
  Last Energy change         ...   -1.8961e-09  Tolerance :   1.0000e-08
  Last MAX-Density change    ...    5.2567e-06  Tolerance :   1.0000e-07
             **** THE GBW FILE WAS UPDATED (03_ScCl.gbw) ****
             **** DENSITY FILE WAS UPDATED (03_ScCl.scfp) ****
             **** ENERGY FILE WAS UPDATED (03_ScCl.en.tmp) ****
             **** THE GBW FILE WAS UPDATED (03_ScCl.gbw) ****
             **** DENSITY FILE WAS UPDATED (03_ScCl.scfp) ****
Total SCF time: 0 days 0 hours 0 min 2 sec 


-------------------------------------------------------------------------------
                          DFT DISPERSION CORRECTION                            
                                                                               
                              DFTD3 V3.1  Rev 1                                
                          USING Becke-Johnson damping                          
-------------------------------------------------------------------------------
-------------------------   ----------------
[...]
               ***  Starting incremental Fock matrix formation  ***
  0  -1220.9899147567   0.000000000000 0.00002629  0.00000058  0.0000582 0.7000
  1  -1220.9899147680  -0.000000011283 0.00002252  0.00000049  0.0000408 0.7000
                               ***Turning on DIIS***
  2  -1220.9899147840  -0.000000015954 0.00006298  0.00000140  0.0000285 0.0000
  3  -1220.9899148262  -0.000000042246 0.00003936  0.00000079  0.0000036 0.0000
  4  -1220.9899147770   0.000000049240 0.00003890  0.00000073  0.0000065 0.0000
  5  -1220.9899147842  -0.000000007266 0.00001427  0.00000020  0.0000034 0.0000
                            ***DIIS convergence achieved***

               *****************************************************
               *                     SUCCESS                       *
               *           SCF CONVERGED AFTER   6 CYCLES          *
               *****************************************************

Setting up the final grid:

General Integration Accuracy     IntAcc      ...  4.670
Radial Grid Type                 RadialGrid  ... Gauss-Chebyshev
Angular Grid (max. acc.)         AngularGrid ... Lebedev-302
Angular grid pruning method      GridPruning ... 3 (G Style)
Weight generation scheme         WeightScheme... Becke
Basis function cutoff            BFCut       ...    1.0000e-11
Integration weight cutoff        WCut        ...    1.0000e-14
Grids for H and He will be reduced by one unit

# of grid points (after initial pruning)     ...  16402 (   0.0 sec)
# of grid points (after weights+screening)   ...  16374 (   0.0 sec)
nearest neighbour list constructed           ...    0.0 sec
Grid point re-assignment to atoms done       ...    0.0 sec
Grid point division into batches done        ...    0.1 sec
Reduced shell lists constructed in    0.1 sec

Total number of grid points                  ...    16374
Total number of batches                      ...      256
Average number of points per batch           ...       63
Average number of grid points per atom       ...     8187
Average number of shells per batch           ...    21.75 (53.05%)
Average number of basis functions per batch  ...    68.08 (47.61%)
Average number of large shells per batch     ...    13.92 (63.98%)
Average number of large basis fcns per batch ...    45.75 (67.20%)
Maximum spatial batch extension              ...  26.53, 26.21, 19.04 au
Average spatial batch extension              ...   0.92,  0.91,  0.70 au

Final grid set up in    0.1 sec
Final integration                            ... done (   0.1 sec)
Change in XC energy                          ...    -0.000367139
Integrated number of electrons               ...    37.999985024
Previous integrated no of electrons          ...    38.000073138

----------------
TOTAL SCF ENERGY
----------------

Total Energy       :        -1220.99028190 Eh          -33224.83469 eV

Components:
Nuclear Repulsion  :           84.49838868 Eh            2299.31805 eV
Electronic Energy  :        -1305.48867059 Eh          -35524.15274 eV
One Electron Energy:        -1844.49626850 Eh          -50191.29514 eV
Two Electron Energy:          539.00759791 Eh           14667.14240 eV

Virial components:
Potential Energy   :        -2439.46378771 Eh          -66381.18442 eV
Kinetic Energy     :         1218.47350580 Eh           33156.34973 eV
Virial Ratio       :            2.00206552


DFT components:
N(Alpha)           :       18.999992512229 electrons
N(Beta)            :       18.999992512229 electrons
N(Total)           :       37.999985024458 electrons
E(X)               :      -65.718064460098 Eh       
E(C)               :       -1.511861604138 Eh       
E(XC)              :      -67.229926064236 Eh       
DFET-embed. en.    :        0.000000000000 Eh       

---------------
SCF CONVERGENCE
---------------

  Last Energy change         ...    1.8921e-08  Tolerance :   1.0000e-08
  Last MAX-Density change    ...    8.2265e-06  Tolerance :   1.0000e-07
  Last RMS-Density change    ...    1.1921e-07  Tolerance :   5.0000e-09
  Last DIIS Error            ...    7.8468e-07  Tolerance :   5.0000e-07

             **** THE GBW FILE WAS UPDATED (03_ScCl.gbw) ****
             **** DENSITY FILE WAS UPDATED (03_ScCl.scfp) ****
             **** ENERGY FILE WAS UPDATED (03_ScCl.en.tmp) ****
             **** THE GBW FILE WAS UPDATED (03_ScCl.gbw) ****
             **** DENSITY FILE WAS UPDATED (03_ScCl.scfp) ****
----------------
ORBITAL ENERGIES
----------------

  NO   OCC          E(Eh)            E(eV) 
   0   2.0000    -161.082839     -4383.2869 
   1   2.0000    -101.009276     -2748.6021 
   2   2.0000     -17.378529      -472.8938 
   3   2.0000     -14.323568      -389.7641 
   4   2.0000     -14.323568      -389.7641 
   5   2.0000     -14.308924      -389.3656 
   6   2.0000      -9.237304      -251.3598 
   7   2.0000      -7.012758      -190.8269 
   8   2.0000      -7.011448      -190.7912 
   9   2.0000      -7.011448      -190.7912 
  10   2.0000      -2.056059       -55.9482 
  11   2.0000      -1.278698       -34.7951 
  12   2.0000      -1.278698       -34.7951 
  13   2.0000      -1.263173       -34.3727 
  14   2.0000      -0.737521       -20.0690 
  15   2.0000      -0.325562        -8.8590 
  16   2.0000      -0.299236        -8.1426 
  17   2.0000      -0.299236        -8.1426 
  18   2.0000      -0.153697        -4.1823 
  19   0.0000      -0.145292        -3.9536 
  20   0.0000      -0.145038        -3.9467 
  21   0.0000      -0.120780        -3.2866 
  22   0.0000      -0.120780        -3.2866 
  23   0.0000      -0.101671        -2.7666 
  24   0.0000      -0.046272        -1.2591 
  25   0.0000      -0.046272        -1.2591 
  26   0.0000      -0.004025        -0.1095 
  27   0.0000       0.000317         0.0086 
  28   0.0000       0.016143         0.4393 
  29   0.0000       0.016143         0.4393 
  30   0.0000       0.020572         0.5598 
  31   0.0000       0.020573         0.5598 
  32   0.0000       0.022928         0.6239 
  33   0.0000       0.022928         0.6239 
  34   0.0000       0.022983         0.6254 
  35   0.0000       0.040815         1.1106 
  36   0.0000       0.072275         1.9667 
  37   0.0000       0.078995         2.1496 
  38   0.0000       0.079094         2.1523 
  39   0.0000       0.086044         2.3414 
  40   0.0000       0.086044         2.3414 
  41   0.0000       0.087027         2.3681 
  42   0.0000       0.095228         2.5913 
  43   0.0000       0.095228         2.5913 
  44   0.0000       0.102994         2.8026 
  45   0.0000       0.104981         2.8567 
  46   0.0000       0.105176         2.8620 
  47   0.0000       0.113929         3.1002 
  48   0.0000       0.113929         3.1002 
  49   0.0000       0.115411         3.1405 
  50   0.0000       0.115411         3.1405 
  51   0.0000       0.141118         3.8400 
  52   0.0000       0.158004         4.2995 
  53   0.0000       0.158004         4.2995 
  54   0.0000       0.177264         4.8236 
  55   0.0000       0.249355         6.7853 
  56   0.0000       0.260894         7.0993 
  57   0.0000       0.260975         7.1015 
  58   0.0000       0.294554         8.0152 
  59   0.0000       0.294554         8.0152 
  60   0.0000       0.319192         8.6856 
  61   0.0000       0.319968         8.7068 
  62   0.0000       0.339155         9.2289 
  63   0.0000       0.347075         9.4444 
  64   0.0000       0.362234         9.8569 
  65   0.0000       0.362234         9.8569 
  66   0.0000       0.385505        10.4901 
  67   0.0000       0.385505        10.4901 
  68   0.0000       0.391444        10.6517 
  69   0.0000       0.391927        10.6649 
  70   0.0000       0.398500        10.8437 
  71   0.0000       0.404716        11.0129 
  72   0.0000       0.406362        11.0577 
  73   0.0000       0.414616        11.2823 
  74   0.0000       0.414616        11.2823 
  75   0.0000       0.441774        12.0213 
  76   0.0000       0.449517        12.2320 
  77   0.0000       0.449517        12.2320 
  78   0.0000       0.483205        13.1487 
  79   0.0000       0.483205        13.1487 
  80   0.0000       0.552747        15.0410 
  81   0.0000       0.552747        15.0410 
  82   0.0000       0.561195        15.2709 
  83   0.0000       0.563138        15.3238 
  84   0.0000       0.571477        15.5507 
  85   0.0000       0.710077        19.3222 
  86   0.0000       0.710077        19.3222 
  87   0.0000       0.741013        20.1640 
  88   0.0000       0.748832        20.3768 
  89   0.0000       0.750473        20.4214 
  90   0.0000       0.836320        22.7574 
  91   0.0000       0.891259        24.2524 
  92   0.0000       0.891259        24.2524 
  93   0.0000       0.953061        25.9341 
  94   0.0000       1.033847        28.1324 
  95   0.0000       1.033847        28.1324 
  96   0.0000       1.158810        31.5328 
  97   0.0000       1.177030        32.0286 
  98   0.0000       1.178129        32.0585 
  99   0.0000       1.202678        32.7265 
 100   0.0000       1.202678        32.7265 
 101   0.0000       1.272806        34.6348 
 102   0.0000       1.273655        34.6579 
 103   0.0000       1.296919        35.2910 
 104   0.0000       1.490307        40.5533 
 105   0.0000       1.490307        40.5533 
 106   0.0000       1.579397        42.9776 
 107   0.0000       1.579397        42.9776 
 108   0.0000       1.610686        43.8290 
 109   0.0000       1.779199        48.4145 
 110   0.0000       1.781815        48.4857 
 111   0.0000       1.786431        48.6113 
 112   0.0000       1.786431        48.6113 
 113   0.0000       1.799001        48.9533 
 114   0.0000       1.872204        50.9453 
 115   0.0000       1.874234        51.0005 
 116   0.0000       1.874575        51.0098 
 117   0.0000       1.973114        53.6912 
 118   0.0000       1.973114        53.6912 
 119   0.0000       2.005629        54.5759 
 120   0.0000       2.005629        54.5759 
 121   0.0000       2.005738        54.5789 
 122   0.0000       2.008094        54.6430 
 123   0.0000       2.072227        56.3882 
 124   0.0000       2.120230        57.6944 
 125   0.0000       2.120230        57.6944 
 126   0.0000       2.233255        60.7700 
 127   0.0000       2.239896        60.9507 
 128   0.0000       2.265116        61.6369 
 129   0.0000       2.336184        63.5708 
 130   0.0000       2.336184        63.5708 
 131   0.0000       2.558245        69.6134 
 132   0.0000       2.558245        69.6134 
 133   0.0000       2.596197        70.6461 
 134   0.0000       2.753770        74.9339 
 135   0.0000       2.753770        74.9339 
 136   0.0000       2.848411        77.5092 
 137   0.0000       2.849969        77.5516 
 138   0.0000       2.882042        78.4244 
 139   0.0000       2.964071        80.6565 
 140   0.0000       2.964071        80.6565 
 141   0.0000       3.399776        92.5126 
 142   0.0000       6.166852       167.8086 

                    ********************************
                    * MULLIKEN POPULATION ANALYSIS *
                    ********************************

-----------------------
MULLIKEN ATOMIC CHARGES
-----------------------
   0 Sc:    0.340735
   1 Cl:   -0.340735
Sum of atomic charges:    0.0000000

--------------------------------
MULLIKEN REDUCED ORBITAL CHARGES
--------------------------------
  0 Scs       :     7.377021  s :     7.377021
      pz      :     4.102474  p :    12.161320
      px      :     4.029423
      py      :     4.029423
      dz2     :     0.802632  d :     1.078821
      dxz     :     0.138094
      dyz     :     0.138094
      dx2y2   :     0.000000
      dxy     :     0.000000
      f0      :     0.006997  f :     0.033392
      f+1     :     0.013197
      f-1     :     0.013197
      f+2     :     0.000000
      f-2     :     0.000000
      f+3     :     0.000000
      f-3     :     0.000000
      g0      :    -0.000362  g :     0.008711
      g+1     :     0.004536
      g-1     :     0.004536
      g+2     :     0.000000
      g-2     :    -0.000000
      g+3     :     0.000000
      g-3     :     0.000000
      g+4     :     0.000001
      g-4     :     0.000000
  1 Cls       :     6.015423  s :     6.015423
      pz      :     3.686756  p :    11.304402
      px      :     3.808823
      py      :     3.808823
      dz2     :     0.005873  d :     0.015563
      dxz     :     0.004845
      dyz     :     0.004845
      dx2y2   :     0.000000
      dxy     :     0.000000
      f0      :     0.003184  f :     0.005347
      f+1     :     0.001081
      f-1     :     0.001081
      f+2     :     0.000000
      f-2     :     0.000000
      f+3     :     0.000000
      f-3     :     0.000000


                     *******************************
                     * LOEWDIN POPULATION ANALYSIS *
                     *******************************

----------------------
LOEWDIN ATOMIC CHARGES
----------------------
   0 Sc:   -0.162991
   1 Cl:    0.162991

-------------------------------
LOEWDIN REDUCED ORBITAL CHARGES
-------------------------------
  0 Scs       :     7.163396  s :     7.163396
      pz      :     4.159549  p :    12.170034
      px      :     4.005242
      py      :     4.005242
      dz2     :     0.939657  d :     1.330817
      dxz     :     0.195580
      dyz     :     0.195580
      dx2y2   :     0.000000
      dxy     :     0.000000
      f0      :     0.119365  f :     0.290019
      f+1     :     0.085327
      f-1     :     0.085327
      f+2     :     0.000000
      f-2     :     0.000000
      f+3     :     0.000000
      f-3     :     0.000000
      g0      :     0.073733  g :     0.208726
      g+1     :     0.067496
      g-1     :     0.067496
      g+2     :     0.000000
      g-2     :     0.000000
      g+3     :     0.000000
      g-3     :     0.000000
      g+4     :     0.000001
      g-4     :     0.000000
  1 Cls       :     5.567426  s :     5.567426
      pz      :     3.781858  p :    10.990318
      px      :     3.604230
      py      :     3.604230
      dz2     :     0.139834  d :     0.199801
      dxz     :     0.029984
      dyz     :     0.029984
      dx2y2   :     0.000000
      dxy     :     0.000000
      f0      :     0.055181  f :     0.079463
      f+1     :     0.012141
      f-1     :     0.012141
      f+2     :     0.000000
      f-2     :     0.000000
      f+3     :     0.000000
      f-3     :     0.000000


                      *****************************
                      * MAYER POPULATION ANALYSIS *
                      *****************************

  NA   - Mulliken gross atomic population
  ZA   - Total nuclear charge
  QA   - Mulliken gross atomic charge
  VA   - Mayer's total valence
  BVA  - Mayer's bonded valence
  FA   - Mayer's free valence

  ATOM       NA         ZA         QA         VA         BVA        FA
  0 Sc    20.6593    21.0000     0.3407     1.4087     1.4087    -0.0000
  1 Cl    17.3407    17.0000    -0.3407     1.4087     1.4087     0.0000

  Mayer bond orders larger than 0.100000
B(  0-Sc,  1-Cl) :   1.4087 

-------
TIMINGS
-------

Total SCF time: 0 days 0 hours 0 min 1 sec 

Total time                  ....       1.574 sec
Sum of individual times     ....       1.389 sec  ( 88.2%)

Fock matrix formation       ....       1.211 sec  ( 76.9%)
  Split-RI-J                ....       0.938 sec  ( 77.5% of F)
  XC integration            ....       0.108 sec  (  8.9% of F)
    Basis function eval.    ....       0.019 sec  ( 17.8% of XC)
    Density eval.           ....       0.016 sec  ( 14.5% of XC)
    XC-Functional eval.     ....       0.005 sec  (  4.3% of XC)
    XC-Potential eval.      ....       0.033 sec  ( 30.9% of XC)
Diagonalization             ....       0.019 sec  (  1.2%)
Density matrix formation    ....       0.003 sec  (  0.2%)
Population analysis         ....       0.004 sec  (  0.3%)
Initial guess               ....       0.011 sec  (  0.7%)
Orbital Transformation      ....       0.000 sec  (  0.0%)
Orbital Orthonormalization  ....       0.007 sec  (  0.4%)
DIIS solution               ....       0.006 sec  (  0.4%)
Grid generation             ....       0.135 sec  (  8.6%)


-------------------------------------------------------------------------------
                          DFT DISPERSION CORRECTION                            
                                                                               
                              DFTD3 V3.1  Rev 1                                
                          USING Becke-Johnson damping                          
-------------------------------------------------------------------------------
The TPSS functional is recognized
Active option DFTDOPT                   ...         4   

molecular C6(AA) [au] = 1033.068606 


            DFT-D V3
 parameters
 s6 scaling factor         :     1.0000 
 a1 scaling factor         :     0.4535 
 s8 scaling factor         :     1.9435 
 a2 scaling factor         :     4.4752 
 ad hoc parameters k1-k3   :    16.0000     1.3333    -4.0000 

 Edisp/kcal,au: -1.093439070452  -0.001742505889 
 E6   /kcal   :  -0.355718517 
 E8   /kcal   :  -0.737720554 
 % E8         :  67.467916000 

-------------------------   ----------------
Dispersion correction           -0.001742506
-------------------------   ----------------


-------------------------   --------------------
FINAL SINGLE POINT ENERGY     -1220.992024409835
-------------------------   --------------------

                                *** OPTIMIZATION RUN DONE ***

                            ***************************************
                            *     ORCA property calculations      *
                            ***************************************

                                    ---------------------
                                    Active property flags
                                    ---------------------
   (+) Dipole Moment


------------------------------------------------------------------------------
                       ORCA ELECTRIC PROPERTIES CALCULATION
------------------------------------------------------------------------------

Dipole Moment Calculation                       ... on
Quadrupole Moment Calculation                   ... off
Polarizability Calculation                      ... off
GBWName                                         ... 03_ScCl.gbw
Electron density file                           ... 03_ScCl.scfp
The origin for moment calculation is the CENTER OF MASS  = ( 0.000000,  0.000000  1.639975)

-------------
DIPOLE MOMENT
-------------
                                X             Y             Z
Electronic contribution:      0.00000       0.00000      -2.09869
Nuclear contribution   :      0.00000       0.00000       1.04067
                        -----------------------------------------
Total Dipole Moment    :      0.00000       0.00000      -1.05802
                        -----------------------------------------
Magnitude (a.u.)       :      1.05802
Magnitude (Debye)      :      2.68927



--------------------
Rotational spectrum 
--------------------
 
Rotational constants in cm-1:     0.000000     0.170138     0.170138 
Rotational constants in MHz :     0.000000  5100.617263  5100.617263 

 Dipole components along the rotational axes: 
x,y,z [a.u.] :    -1.058020     0.000000     0.000000 
x,y,z [Debye]:    -2.689274     0.000000     0.000000 

 

Timings for individual modules:

Sum of individual times         ...       69.793 sec (=   1.163 min)
GTO integral calculation        ...       20.964 sec (=   0.349 min)  30.0 %
SCF iterations                  ...       19.008 sec (=   0.317 min)  27.2 %
SCF Gradient evaluation         ...       29.618 sec (=   0.494 min)  42.4 %
Geometry relaxation             ...        0.203 sec (=   0.003 min)   0.3 %
                             ****ORCA TERMINATED NORMALLY****
TOTAL RUN TIME: 0 days 0 hours 1 minutes 10 seconds 746 msec
