
                                 *****************
                                 * O   R   C   A *
                                 *****************

           --- An Ab Initio, DFT and Semiempirical electronic structure package ---

                  #######################################################
                  #                        -***-                        #
                  #          Department of theory and spectroscopy      #
                  #               Directorship: Frank Neese             #
                  #        Max Planck Institute fuer Kohlenforschung    #
                  #                Kaiser Wilhelm Platz 1               #
                  #                 D-45470 Muelheim/Ruhr               #
                  #                      Germany                        #
                  #                                                     #
                  #                  All rights reserved                #
                  #                        -***-                        #
                  #######################################################


                         Program Version 4.2.0 -  RELEASE  -


 With contributions from (in alphabetic order):
   Daniel Aravena         : Magnetic Suceptibility
   Michael Atanasov       : Ab Initio Ligand Field Theory (pilot matlab implementation)
   Alexander A. Auer      : GIAO ZORA, VPT2
   Ute Becker             : Parallelization
   Giovanni Bistoni       : ED, misc. LED, open-shell LED, HFLED
   Martin Brehm           : Molecular dynamics
   Dmytro Bykov           : SCF Hessian
   Vijay G. Chilkuri      : MRCI spin determinant printing, contributions to CSF-ICE
   Dipayan Datta          : RHF DLPNO-CCSD density
   Achintya Kumar Dutta   : EOM-CC, STEOM-CC
   Dmitry Ganyushin       : Spin-Orbit,Spin-Spin,Magnetic field MRCI
   Miquel Garcia          : C-PCM Hessian, Gaussian charge scheme
   Yang Guo               : DLPNO-NEVPT2, CIM, IAO-localization
   Andreas Hansen         : Spin unrestricted coupled pair/coupled cluster methods
   Benjamin Helmich-Paris : CASSCF linear response (MC-RPA)
   Lee Huntington         : MR-EOM, pCC
   Robert Izsak           : Overlap fitted RIJCOSX, COSX-SCS-MP3, EOM
   Christian Kollmar      : KDIIS, OOCD, Brueckner-CCSD(T), CCSD density
   Simone Kossmann        : Meta GGA functionals, TD-DFT gradient, OOMP2, MP2 Hessian
   Martin Krupicka        : AUTO-CI
   Lucas Lang             : DCDCAS
   Dagmar Lenk            : GEPOL surface, SMD
   Dimitrios Liakos       : Extrapolation schemes; Compound Job, initial MDCI parallelization
   Dimitrios Manganas     : Further ROCIS development; embedding schemes
   Dimitrios Pantazis     : SARC Basis sets
   Taras Petrenko         : DFT Hessian,TD-DFT gradient, ASA, ECA, R-Raman, ABS, FL, XAS/XES, NRVS
   Peter Pinski           : DLPNO-MP2, DLPNO-MP2 Gradient
   Christoph Reimann      : Effective Core Potentials
   Marius Retegan         : Local ZFS, SOC
   Christoph Riplinger    : Optimizer, TS searches, QM/MM, DLPNO-CCSD(T), (RO)-DLPNO pert. Triples
   Tobias Risthaus        : Range-separated hybrids, TD-DFT gradient, RPA, STAB
   Michael Roemelt        : Original ROCIS implementation
   Masaaki Saitow         : Open-shell DLPNO-CCSD energy and density
   Barbara Sandhoefer     : DKH picture change effects
   Avijit Sen             : IP-ROCIS
   Kantharuban Sivalingam : CASSCF convergence, NEVPT2, FIC-MRCI
   Bernardo de Souza      : ESD, SOC TD-DFT
   Georgi Stoychev        : AutoAux, RI-MP2 NMR
   Willem Van den Heuvel  : Paramagnetic NMR
   Boris Wezisla          : Elementary symmetry handling
   Frank Wennmohs         : Technical directorship


 We gratefully acknowledge several colleagues who have allowed us to
 interface, adapt or use parts of their codes:
   Stefan Grimme, W. Hujo, H. Kruse,             : VdW corrections, initial TS optimization,
                  C. Bannwarth                     DFT functionals, gCP, sTDA/sTD-DF
   Ed Valeev, F. Pavosevic, A. Kumar             : LibInt (2-el integral package), F12 methods
   Garnet Chan, S. Sharma, J. Yang, R. Olivares  : DMRG
   Ulf Ekstrom                                   : XCFun DFT Library
   Mihaly Kallay                                 : mrcc  (arbitrary order and MRCC methods)
   Andreas Klamt, Michael Diedenhofen            : otool_cosmo (COSMO solvation model)
   Jiri Pittner, Ondrej Demel                    : Mk-CCSD
   Frank Weinhold                                : gennbo (NPA and NBO analysis)
   Christopher J. Cramer and Donald G. Truhlar   : smd solvation model
   Lars Goerigk                                  : TD-DFT with DH, B97 family of functionals
   V. Asgeirsson, H. Jonsson                     : NEB implementation
   FAccTs GmbH                                   : IRC, NEB, NEB-TS, Multilevel, MM, QM/MM, CI optimization
   S Lehtola, MJT Oliveira, MAL Marques          : LibXC Library


 Your calculation uses the libint2 library for the computation of 2-el integrals
 For citations please refer to: http://libint.valeyev.net

 Your ORCA version has been built with support for libXC version: 4.2.3
 For citations please refer to: https://tddft.org/programs/libxc/

 This ORCA versions uses:
   CBLAS   interface :  Fast vector & matrix operations
   LAPACKE interface :  Fast linear algebra routines
   SCALAPACK package :  Parallel linear algebra routines


Your calculation utilizes the atom-pairwise dispersion correction
with the Becke-Johnson damping scheme (D3BJ)
Cite in your paper:
S.Grimme, S.Ehrlich, L.Goerigk, J Comput Chem, (2011), 32, 1456–1465 
S.Grimme, J.Antony, S.Ehrlich and H.Krieg, J.Chem.Phys., 132, (2010), 154104 
   

----- Orbital basis set information -----
Your calculation utilizes the basis: aug-cc-pVTZ 
    H, B-Ne : Obtained from the ccRepo (grant-hill.group.shef.ac.uk/ccrepo) Feb. 2017
              R. A. Kendall, T. H. Dunning, Jr., R. J. Harrison, J. Chem. Phys. 96, 6796 (1992)
         He : Obtained from the ccRepo (grant-hill.group.shef.ac.uk/ccrepo) Feb. 2017
              D. E. Woon, T. H. Dunning, Jr., J. Chem. Phys. 100, 2975 (1994)
  Li-Be, Na : Obtained from the ccRepo (grant-hill.group.shef.ac.uk/ccrepo) Feb. 2017
              B. P. Prascher, D. E. Woon, K. A. Peterson, T. H. Dunning, Jr., A. K. Wilson, Theor. Chem. Acc. 128, 69 (2011)
         Mg : Obtained from the Peterson Research Group Website (tyr0.chem.wsu.edu/~kipeters) Feb. 2017
              B. P. Prascher, D. E. Woon, K. A. Peterson, T. H. Dunning, Jr., A. K. Wilson, Theor. Chem. Acc. 128, 69 (2011)
      Al-Ar : Obtained from the ccRepo (grant-hill.group.shef.ac.uk/ccrepo) Feb. 2017
              D. E. Woon, T. H. Dunning, Jr., J. Chem. Phys. 98, 1358 (1993)
      Sc-Zn : Obtained from the ccRepo (grant-hill.group.shef.ac.uk/ccrepo) Feb. 2017
              N. B. Balabanov, K. A. Peterson, J. Chem. Phys. 123, 064107 (2005)
              N. B. Balabanov, K. A. Peterson, J. Chem. Phys. 125, 074110 (2006)
      Ga-Kr : Obtained from the ccRepo (grant-hill.group.shef.ac.uk/ccrepo) Feb. 2017
              A. K. Wilson, D. E. Woon, K. A. Peterson, T. H. Dunning, Jr., J. Chem. Phys. 110, 7667 (1999)
     Ag, Au : Obtained from the Peterson Research Group Website (tyr0.chem.wsu.edu/~kipeters) Feb. 2017
              K. A. Peterson, C. Puzzarini, Theor. Chem. Acc. 114, 283 (2005)

----- AuxJ basis set information -----
Your calculation utilizes the auxiliary basis: def2/J
   F. Weigend, Phys. Chem. Chem. Phys. 8, 1057 (2006).

================================================================================
                                        WARNINGS
                       Please study these warnings very carefully!
================================================================================


WARNING: your system is open-shell and RHF/RKS was chosen
  ===> : WILL SWITCH to UHF/UKS


WARNING: Geometry Optimization
  ===> : Switching off AutoStart
         For restart on a previous wavefunction, please use MOREAD

INFO   : the flag for use of LIBINT has been found!

================================================================================
                                       INPUT FILE
================================================================================
NAME = 06_ScS.in
|  1> #
|  2> # 06_ScS tpss/aug-cc-pvtz
|  3> #
|  4> ! tpss d3bj aug-cc-pvtz def2/j opt xyzfile
|  5> 
|  6> *xyz 0 2
|  7> Sc 0.0 0.0 0.0
|  8> S 0.0 0.0 2.0
|  9> *
| 10> 
| 11> %pal
| 12> nprocs 24
| 13> end
| 14> 
| 15> 
| 16>                          ****END OF INPUT****
================================================================================

                       *****************************
                       * Geometry Optimization Run *
                       *****************************

Geometry optimization settings:
Update method            Update   .... BFGS
Choice of coordinates    CoordSys .... Z-matrix Internals
Initial Hessian          InHess   .... Almoef's Model

Convergence Tolerances:
Energy Change            TolE     ....  5.0000e-06 Eh
Max. Gradient            TolMAXG  ....  3.0000e-04 Eh/bohr
RMS Gradient             TolRMSG  ....  1.0000e-04 Eh/bohr
Max. Displacement        TolMAXD  ....  4.0000e-03 bohr
RMS Displacement         TolRMSD  ....  2.0000e-03 bohr
Strict Convergence                ....  False
------------------------------------------------------------------------------
                        ORCA OPTIMIZATION COORDINATE SETUP
------------------------------------------------------------------------------

The optimization will be done in new redundant internal coordinates
Making redundant internal coordinates   ...  (new redundants) done
Evaluating the initial hessian          ...  (Almloef) done
Evaluating the coordinates              ...  done
Calculating the B-matrix                .... done
Calculating the G-matrix                .... done
Diagonalizing the G-matrix              .... done
The first mode is                       ....    0
The number of degrees of freedom        ....    1

    -----------------------------------------------------------------
                    Redundant Internal Coordinates


    -----------------------------------------------------------------
         Definition                    Initial Value    Approx d2E/dq
    -----------------------------------------------------------------
      1. B(S   1,Sc  0)                  2.0000         1.813072   
    -----------------------------------------------------------------

Number of atoms                         .... 2
Number of degrees of freedom            .... 1

         *************************************************************
         *                GEOMETRY OPTIMIZATION CYCLE   1            *
         *************************************************************
---------------------------------
CARTESIAN COORDINATES (ANGSTROEM)
---------------------------------
  Sc     0.000000    0.000000    0.000000
  S      0.000000    0.000000    2.000000

----------------------------
CARTESIAN COORDINATES (A.U.)
----------------------------
  NO LB      ZA    FRAG     MASS         X           Y           Z
   0 Sc   21.0000    0    44.960    0.000000    0.000000    0.000000
   1 S    16.0000    0    32.060    0.000000    0.000000    3.779452

--------------------------------
INTERNAL COORDINATES (ANGSTROEM)
--------------------------------
 Sc     0   0   0     0.000000000000     0.00000000     0.00000000
 S      1   0   0     2.000000000000     0.00000000     0.00000000

---------------------------
INTERNAL COORDINATES (A.U.)
---------------------------
 Sc     0   0   0     0.000000000000     0.00000000     0.00000000
 S      1   0   0     3.779452267843     0.00000000     0.00000000

---------------------
BASIS SET INFORMATION
---------------------
There are 2 groups of distinct atoms

 Group   1 Type Sc  : 116s77p23d3f2g contracted to 8s7p5d3f2g pattern {19191919191911/151515151511/77711/111/11}
 Group   2 Type S   : 42s17p3d2f contracted to 6s5p3d2f pattern {131313111/77111/111/11}

Atom   0Sc   basis set group =>   1
Atom   1S    basis set group =>   2
---------------------------------
AUXILIARY/J BASIS SET INFORMATION
---------------------------------
There are 2 groups of distinct atoms

 Group   1 Type Sc  : 19s5p5d3f3g contracted to 8s5p5d2f3g pattern {121111111/11111/11111/21/111}
 Group   2 Type S   : 14s5p5d2f1g contracted to 8s4p3d1f1g pattern {71111111/2111/311/2/1}

Atom   0Sc   basis set group =>   1
Atom   1S    basis set group =>   2


           ************************************************************
           *        Program running with 24 parallel MPI-processes    *
           *              working on a common directory               *
           ************************************************************
------------------------------------------------------------------------------
                           ORCA GTO INTEGRAL CALCULATION
                           -- RI-GTO INTEGRALS CHOSEN --
------------------------------------------------------------------------------

                         BASIS SET STATISTICS AND STARTUP INFO

Gaussian basis set:
 # of primitive gaussian shells          ...  285
 # of primitive gaussian functions       ...  623
 # of contracted shells                  ...   41
 # of contracted basis functions         ...  143
 Highest angular momentum                ...    4
 Maximum contraction depth               ...   19
Auxiliary gaussian basis set:
 # of primitive gaussian shells          ...   62
 # of primitive gaussian functions       ...  184
 # of contracted shells                  ...   40
 # of contracted aux-basis functions     ...  140
 Highest angular momentum                ...    4
 Maximum contraction depth               ...   12
Ratio of auxiliary to basis functions    ...  0.98
Integral package used                  ... LIBINT
 One Electron integrals                  ... done
 Ordering auxiliary basis shells         ... done
 Integral threshhold             Thresh  ...  2.500e-11
 Primitive cut-off               TCut    ...  2.500e-12
 Pre-screening matrix                    ... done
 Shell pair data                         ... 
 Ordering of the shell pairs             ... done (   0.000 sec) 861 of 861 pairs
 Determination of significant pairs      ... done (   0.000 sec)
 Creation of shell pair data             ... done (   0.001 sec)
 Storage of shell pair data              ... done (   0.047 sec)
 Shell pair data done in (   0.048 sec)
 Computing two index integrals           ... done
 Cholesky decomposition of the V-matrix  ... done


Timings:
 Total evaluation time                   ...   2.594 sec (  0.043 min)
 One electron matrix time                ...   0.044 sec (  0.001 min) =  1.7%
 Schwartz matrix evaluation time         ...   2.464 sec (  0.041 min) = 95.0%
 Two index repulsion integral time       ...   0.001 sec (  0.000 min) =  0.0%
 Cholesky decomposition of V             ...   0.001 sec (  0.000 min) =  0.0%
 Three index repulsion integral time     ...   0.000 sec (  0.000 min) =  0.0%



           ************************************************************
           *        Program running with 24 parallel MPI-processes    *
           *              working on a common directory               *
           ************************************************************
-------------------------------------------------------------------------------
                                 ORCA SCF
-------------------------------------------------------------------------------

------------
SCF SETTINGS
------------
Hamiltonian:
 Density Functional     Method          .... DFT(GTOs)
 Exchange Functional    Exchange        .... TPSS
 Correlation Functional Correlation     .... TPSS
 LDA part of GGA corr.  LDAOpt          .... PW91-LDA
 Gradients option       PostSCFGGA      .... off
   Density functional embedding theory  .... OFF
   NL short-range parameter             ....  5.000000
 RI-approximation to the Coulomb term is turned on
   Number of auxiliary basis functions  .... 140


General Settings:
 Integral files         IntName         .... 06_ScS
 Hartree-Fock type      HFTyp           .... UHF
 Total Charge           Charge          ....    0
 Multiplicity           Mult            ....    2
 Number of Electrons    NEL             ....   37
 Basis Dimension        Dim             ....  143
 Nuclear Repulsion      ENuc            ....     88.9017709944 Eh

Convergence Acceleration:
 DIIS                   CNVDIIS         .... on
   Start iteration      DIISMaxIt       ....    12
   Startup error        DIISStart       ....  0.200000
   # of expansion vecs  DIISMaxEq       ....     5
   Bias factor          DIISBfac        ....   1.050
   Max. coefficient     DIISMaxC        ....  10.000
 Newton-Raphson         CNVNR           .... off
 SOSCF                  CNVSOSCF        .... off
 Level Shifting         CNVShift        .... on
   Level shift para.    LevelShift      ....    0.2500
   Turn off err/grad.   ShiftErr        ....    0.0010
 Zerner damping         CNVZerner       .... off
 Static damping         CNVDamp         .... on
   Fraction old density DampFac         ....    0.7000
   Max. Damping (<1)    DampMax         ....    0.9800
   Min. Damping (>=0)   DampMin         ....    0.0000
   Turn off err/grad.   DampErr         ....    0.1000
 Fernandez-Rico         CNVRico         .... off

SCF Procedure:
 Maximum # iterations   MaxIter         ....   125
 SCF integral mode      SCFMode         .... Direct
   Integral package                     .... LIBINT
 Reset frequency        DirectResetFreq ....    20
 Integral Threshold     Thresh          ....  2.500e-11 Eh
 Primitive CutOff       TCut            ....  2.500e-12 Eh

Convergence Tolerance:
 Convergence Check Mode ConvCheckMode   .... Total+1el-Energy
 Convergence forced     ConvForced      .... 0
 Energy Change          TolE            ....  1.000e-08 Eh
 1-El. energy change                    ....  1.000e-05 Eh
 DIIS Error             TolErr          ....  5.000e-07


Diagonalization of the overlap matrix:
Smallest eigenvalue                        ... 5.781e-05
Time for diagonalization                   ...    0.005 sec
Threshold for overlap eigenvalues          ... 1.000e-08
Number of eigenvalues below threshold      ... 0
Time for construction of square roots      ...    0.003 sec
Total time needed                          ...    0.008 sec

-------------------
DFT GRID GENERATION
-------------------

General Integration Accuracy     IntAcc      ...  4.340
Radial Grid Type                 RadialGrid  ... Gauss-Chebyshev
Angular Grid (max. acc.)         AngularGrid ... Lebedev-110
Angular grid pruning method      GridPruning ... 3 (G Style)
Weight generation scheme         WeightScheme... Becke
Basis function cutoff            BFCut       ...    1.0000e-11
Integration weight cutoff        WCut        ...    1.0000e-14
Grids for H and He will be reduced by one unit

# of grid points (after initial pruning)     ...   4778 (   0.0 sec)
# of grid points (after weights+screening)   ...   4751 (   0.0 sec)
nearest neighbour list constructed           ...    0.0 sec
Grid point re-assignment to atoms done       ...    0.0 sec
Grid point division into batches done        ...    0.0 sec
Reduced shell lists constructed in    0.0 sec

Total number of grid points                  ...     4751
Total number of batches                      ...       75
Average number of points per batch           ...       63
Average number of grid points per atom       ...     2376
Average number of shells per batch           ...    25.60 (62.44%)
Average number of basis functions per batch  ...    91.20 (63.78%)
Average number of large shells per batch     ...    20.80 (81.25%)
Average number of large basis fcns per batch ...    73.60 (80.70%)
Maximum spatial batch extension              ...  20.56, 31.13, 17.28 au
Average spatial batch extension              ...   1.01,  1.39,  0.92 au

Time for grid setup =    0.188 sec

------------------------------
INITIAL GUESS: MODEL POTENTIAL
------------------------------
Loading Hartree-Fock densities                     ... done
Calculating cut-offs                               ... done
Setting up the integral package                    ... done
Initializing the effective Hamiltonian             ... done
Starting the Coulomb interaction                   ... done (   0.0 sec)
Reading the grid                                   ... done
Mapping shells                                     ... done
Starting the XC term evaluation                    ... done (   0.0 sec)
  promolecular density results
     # of electrons  =     36.999801944
     EX              =    -62.768230263
     EC              =     -1.453266616
     EX+EC           =    -64.221496878
Transforming the Hamiltonian                       ... done (   0.0 sec)
Diagonalizing the Hamiltonian                      ... done (   0.0 sec)
Back transforming the eigenvectors                 ... done (   0.0 sec)
Now organizing SCF variables                       ... done
                      ------------------
                      INITIAL GUESS DONE (   0.3 sec)
                      ------------------
--------------
SCF ITERATIONS
--------------
ITER       Energy         Delta-E        Max-DP      RMS-DP      [F,P]     Damp
               ***  Starting incremental Fock matrix formation  ***
  0  -1158.8455839397   0.000000000000 0.08365528  0.00182836  0.1556792 0.7000
  1  -1158.9086812659  -0.063097326162 0.07622462  0.00158970  0.0656642 0.7000
                               ***Turning on DIIS***
  2  -1158.9268508334  -0.018169567527 0.16675760  0.00325790  0.0353894 0.0000
  3  -1158.9605867205  -0.033735887085 0.14074504  0.00209621  0.0523431 0.0000
  4  -1158.9678773910  -0.007290670475 0.05185810  0.00057802  0.0385232 0.0000
  5  -1158.9716079605  -0.003730569569 0.05080962  0.00047020  0.0204826 0.0000
  6  -1158.9728250175  -0.001217056909 0.07106879  0.00057051  0.0087716 0.0000
  7  -1158.9732006311  -0.000375613625 0.05373966  0.00041723  0.0039708 0.0000
  8  -1158.9733493324  -0.000148701369 0.04167522  0.00031450  0.0021360 0.0000
  9  -1158.9734330690  -0.000083736557 0.03232321  0.00024517  0.0016371 0.0000
 10  -1158.9734861140  -0.000053045045 0.02637173  0.00019591  0.0013335 0.0000
 11  -1158.9735240317  -0.000037917656 0.02275557  0.00017194  0.0010166 0.0000
 12  -1158.9735483013  -0.000024269624 0.05271713  0.00036843  0.0008550 0.0000
 13  -1158.9735854740  -0.000037172657 0.00815066  0.00007922  0.0011989 0.0000
 14  -1158.9735889468  -0.000003472800 0.00604521  0.00004557  0.0001755 0.0000
 15  -1158.9735894097  -0.000000462904 0.00065729  0.00000593  0.0000842 0.0000
 16  -1158.9735894337  -0.000000024009 0.00093273  0.00000735  0.0000458 0.0000
 17  -1158.9735893903   0.000000043410 0.00017592  0.00000148  0.0000519 0.0000
 18  -1158.9735893870   0.000000003300 0.00012732  0.00000102  0.0000064 0.0000
 19  -1158.9735893688   0.000000018154 0.00005909  0.00000049  0.0000019 0.0000
               *** Restarting incremental Fock matrix formation ***
                                   *** Resetting DIIS ***
 20  -1158.9735894053  -0.000000036478 0.00001506  0.00000029  0.0000042 0.0000
                            ***DIIS convergence achieved***

               *****************************************************
               *                     SUCCESS                       *
               *           SCF CONVERGED AFTER  21 CYCLES          *
               *****************************************************

Setting up the final grid:

General Integration Accuracy     IntAcc      ...  4.670
Radial Grid Type                 RadialGrid  ... Gauss-Chebyshev
Angular Grid (max. acc.)         AngularGrid ... Lebedev-302
Angular grid pruning method      GridPruning ... 3 (G Style)
Weight generation scheme         WeightScheme... Becke
Basis function cutoff            BFCut       ...    1.0000e-11
Integration weight cutoff        WCut        ...    1.0000e-14
Grids for H and He will be reduced by one unit

# of grid points (after initial pruning)     ...  16510 (   0.0 sec)
# of grid points (after weights+screening)   ...  16480 (   0.0 sec)
nearest neighbour list constructed           ...    0.0 sec
Grid point re-assignment to atoms done       ...    0.0 sec
Grid point division into batches done        ...    0.1 sec
Reduced shell lists constructed in    0.1 sec

Total number of grid points                  ...    16480
Total number of batches                      ...      258
Average number of points per batch           ...       63
Average number of grid points per atom       ...     8240
Average number of shells per batch           ...    22.83 (55.69%)
Average number of basis functions per batch  ...    71.83 (50.23%)
Average number of large shells per batch     ...    14.25 (62.41%)
Average number of large basis fcns per batch ...    46.25 (64.39%)
Maximum spatial batch extension              ...  26.53, 26.21, 18.89 au
Average spatial batch extension              ...   0.91,  0.90,  0.75 au

Final grid set up in    0.1 sec
Final integration                            ... done (   0.1 sec)
Change in XC energy                          ...    -0.001425512
Integrated number of electrons               ...    36.999987223
Previous integrated no of electrons          ...    36.999620179

----------------
TOTAL SCF ENERGY
----------------

Total Energy       :        -1158.97501494 Eh          -31537.31348 eV

Components:
Nuclear Repulsion  :           88.90177099 Eh            2419.14018 eV
Electronic Energy  :        -1247.87678594 Eh          -33956.45366 eV
One Electron Energy:        -1769.63515427 Eh          -48154.22066 eV
Two Electron Energy:          521.75836833 Eh           14197.76700 eV

Virial components:
Potential Energy   :        -2315.79140245 Eh          -63015.88773 eV
Kinetic Energy     :         1156.81638751 Eh           31478.57424 eV
Virial Ratio       :            2.00186601


DFT components:
N(Alpha)           :       18.999993563039 electrons
N(Beta)            :       17.999993659829 electrons
N(Total)           :       36.999987222868 electrons
E(X)               :      -63.335996611636 Eh       
E(C)               :       -1.472833524175 Eh       
E(XC)              :      -64.808830135811 Eh       
DFET-embed. en.    :        0.000000000000 Eh       

---------------
SCF CONVERGENCE
---------------

  Last Energy change         ...   -2.5130e-08  Tolerance :   1.0000e-08
  Last MAX-Density change    ...    1.8571e-06  Tolerance :   1.0000e-07
  Last RMS-Density change    ...    2.7853e-08  Tolerance :   5.0000e-09
  Last DIIS Error            ...    8.3677e-07  Tolerance :   5.0000e-07

             **** THE GBW FILE WAS UPDATED (06_ScS.gbw) ****
             **** DENSITY FILE WAS UPDATED (06_ScS.scfp) ****
             **** ENERGY FILE WAS UPDATED (06_ScS.en.tmp) ****
----------------------
UHF SPIN CONTAMINATION
----------------------

Warning: in a DFT calculation there is little theoretical justification to 
         calculate <S**2> as in Hartree-Fock theory. We will do it anyways
         but you should keep in mind that the values have only limited relevance

Expectation value of <S**2>     :     0.752373
Ideal value S*(S+1) for S=0.5   :     0.750000
Deviation                       :     0.002373

             **** THE GBW FILE WAS UPDATED (06_ScS.gbw) ****
             **** DENSITY FILE WAS UPDATED (06_ScS.scfp) ****
----------------
ORBITAL ENERGIES
----------------
                 SPIN UP ORBITALS
  NO   OCC          E(Eh)            E(eV) 
   0   1.0000    -161.023290     -4381.6665 
   1   1.0000     -88.321273     -2403.3440 
   2   1.0000     -17.307540      -470.9621 
   3   1.0000     -14.251166      -387.7939 
   4   1.0000     -14.251166      -387.7939 
   5   1.0000     -14.241550      -387.5323 
   6   1.0000      -7.682189      -209.0430 
   7   1.0000      -5.660025      -154.0171 
   8   1.0000      -5.660025      -154.0171 
   9   1.0000      -5.658106      -153.9649 
  10   1.0000      -2.001346       -54.4594 
  11   1.0000      -1.226129       -33.3647 
  12   1.0000      -1.226129       -33.3647 
  13   1.0000      -1.221949       -33.2509 
  14   1.0000      -0.566063       -15.4034 
  15   1.0000      -0.227228        -6.1832 
  16   1.0000      -0.227100        -6.1797 
  17   1.0000      -0.227100        -6.1797 
  18   1.0000      -0.149503        -4.0682 
  19   0.0000      -0.112853        -3.0709 
  20   0.0000      -0.112799        -3.0694 
  21   0.0000      -0.089476        -2.4348 
  22   0.0000      -0.089476        -2.4348 
  23   0.0000      -0.077245        -2.1019 
  24   0.0000      -0.023284        -0.6336 
  25   0.0000      -0.023284        -0.6336 
  26   0.0000      -0.003290        -0.0895 
  27   0.0000       0.003648         0.0993 
  28   0.0000       0.015409         0.4193 
  29   0.0000       0.015409         0.4193 
  30   0.0000       0.017862         0.4861 
  31   0.0000       0.017871         0.4863 
  32   0.0000       0.022548         0.6136 
  33   0.0000       0.022548         0.6136 
  34   0.0000       0.023760         0.6465 
  35   0.0000       0.053191         1.4474 
  36   0.0000       0.070262         1.9119 
  37   0.0000       0.077571         2.1108 
  38   0.0000       0.077666         2.1134 
  39   0.0000       0.083412         2.2698 
  40   0.0000       0.083412         2.2698 
  41   0.0000       0.085046         2.3142 
  42   0.0000       0.093141         2.5345 
  43   0.0000       0.093141         2.5345 
  44   0.0000       0.101956         2.7744 
  45   0.0000       0.102508         2.7894 
  46   0.0000       0.104805         2.8519 
  47   0.0000       0.105849         2.8803 
  48   0.0000       0.105849         2.8803 
  49   0.0000       0.108160         2.9432 
  50   0.0000       0.108160         2.9432 
  51   0.0000       0.145556         3.9608 
  52   0.0000       0.169896         4.6231 
  53   0.0000       0.169896         4.6231 
  54   0.0000       0.199697         5.4340 
  55   0.0000       0.244697         6.6586 
  56   0.0000       0.244913         6.6644 
  57   0.0000       0.259032         7.0486 
  58   0.0000       0.293175         7.9777 
  59   0.0000       0.293175         7.9777 
  60   0.0000       0.322080         8.7643 
  61   0.0000       0.323418         8.8006 
  62   0.0000       0.330358         8.9895 
  63   0.0000       0.343274         9.3410 
  64   0.0000       0.347574         9.4580 
  65   0.0000       0.347574         9.4580 
  66   0.0000       0.375987        10.2311 
  67   0.0000       0.375987        10.2311 
  68   0.0000       0.376060        10.2331 
  69   0.0000       0.378083        10.2882 
  70   0.0000       0.381172        10.3722 
  71   0.0000       0.384746        10.4695 
  72   0.0000       0.397141        10.8067 
  73   0.0000       0.406775        11.0689 
  74   0.0000       0.406775        11.0689 
  75   0.0000       0.449915        12.2428 
  76   0.0000       0.449915        12.2428 
  77   0.0000       0.462409        12.5828 
  78   0.0000       0.474579        12.9140 
  79   0.0000       0.474579        12.9140 
  80   0.0000       0.552540        15.0354 
  81   0.0000       0.553087        15.0503 
  82   0.0000       0.565414        15.3857 
  83   0.0000       0.565414        15.3857 
  84   0.0000       0.582863        15.8605 
  85   0.0000       0.582863        15.8605 
  86   0.0000       0.591297        16.0900 
  87   0.0000       0.662198        18.0193 
  88   0.0000       0.662492        18.0273 
  89   0.0000       0.671130        18.2624 
  90   0.0000       0.822593        22.3839 
  91   0.0000       0.822593        22.3839 
  92   0.0000       0.825979        22.4760 
  93   0.0000       0.930896        25.3310 
  94   0.0000       0.930896        25.3310 
  95   0.0000       0.981515        26.7084 
  96   0.0000       1.010829        27.5061 
  97   0.0000       1.012589        27.5540 
  98   0.0000       1.043278        28.3890 
  99   0.0000       1.043278        28.3890 
 100   0.0000       1.101286        29.9675 
 101   0.0000       1.301986        35.4288 
 102   0.0000       1.302098        35.4319 
 103   0.0000       1.438123        39.1333 
 104   0.0000       1.450154        39.4607 
 105   0.0000       1.450154        39.4607 
 106   0.0000       1.587553        43.1995 
 107   0.0000       1.587553        43.1995 
 108   0.0000       1.599191        43.5162 
 109   0.0000       1.704811        46.3903 
 110   0.0000       1.779050        48.4104 
 111   0.0000       1.779405        48.4201 
 112   0.0000       1.783278        48.5255 
 113   0.0000       1.783278        48.5255 
 114   0.0000       1.790854        48.7316 
 115   0.0000       1.794571        48.8328 
 116   0.0000       1.903201        51.7887 
 117   0.0000       1.906082        51.8671 
 118   0.0000       1.944173        52.9036 
 119   0.0000       1.944173        52.9036 
 120   0.0000       1.958518        53.2940 
 121   0.0000       1.996939        54.3395 
 122   0.0000       1.996939        54.3395 
 123   0.0000       2.006920        54.6111 
 124   0.0000       2.006920        54.6111 
 125   0.0000       2.036602        55.4188 
 126   0.0000       2.044075        55.6221 
 127   0.0000       2.044834        55.6428 
 128   0.0000       2.122746        57.7629 
 129   0.0000       2.122746        57.7629 
 130   0.0000       2.166083        58.9421 
 131   0.0000       2.166083        58.9421 
 132   0.0000       2.250888        61.2498 
 133   0.0000       2.250888        61.2498 
 134   0.0000       2.308831        62.8265 
 135   0.0000       2.311575        62.9012 
 136   0.0000       2.320622        63.1473 
 137   0.0000       2.505906        68.1892 
 138   0.0000       2.630081        71.5681 
 139   0.0000       2.780442        75.6597 
 140   0.0000       2.780442        75.6597 
 141   0.0000       3.816304       103.8469 
 142   0.0000       5.589371       152.0945 

                 SPIN DOWN ORBITALS
  NO   OCC          E(Eh)            E(eV) 
   0   1.0000    -161.022757     -4381.6520 
   1   1.0000     -88.321471     -2403.3494 
   2   1.0000     -17.305228      -470.8992 
   3   1.0000     -14.249592      -387.7511 
   4   1.0000     -14.249592      -387.7511 
   5   1.0000     -14.238768      -387.4566 
   6   1.0000      -7.682346      -209.0473 
   7   1.0000      -5.660287      -154.0242 
   8   1.0000      -5.660287      -154.0242 
   9   1.0000      -5.658373      -153.9722 
  10   1.0000      -1.992910       -54.2298 
  11   1.0000      -1.219766       -33.1915 
  12   1.0000      -1.219766       -33.1915 
  13   1.0000      -1.206661       -32.8349 
  14   1.0000      -0.566730       -15.4215 
  15   1.0000      -0.226432        -6.1615 
  16   1.0000      -0.226432        -6.1615 
  17   1.0000      -0.224214        -6.1012 
  18   0.0000      -0.121816        -3.3148 
  19   0.0000      -0.097063        -2.6412 
  20   0.0000      -0.097009        -2.6398 
  21   0.0000      -0.076827        -2.0906 
  22   0.0000      -0.076827        -2.0906 
  23   0.0000      -0.061121        -1.6632 
  24   0.0000      -0.011614        -0.3160 
  25   0.0000      -0.011614        -0.3160 
  26   0.0000       0.008951         0.2436 
  27   0.0000       0.012539         0.3412 
  28   0.0000       0.023505         0.6396 
  29   0.0000       0.023505         0.6396 
  30   0.0000       0.029212         0.7949 
  31   0.0000       0.029327         0.7980 
  32   0.0000       0.030424         0.8279 
  33   0.0000       0.030425         0.8279 
  34   0.0000       0.031009         0.8438 
  35   0.0000       0.057407         1.5621 
  36   0.0000       0.084591         2.3018 
  37   0.0000       0.087461         2.3799 
  38   0.0000       0.087581         2.3832 
  39   0.0000       0.092018         2.5039 
  40   0.0000       0.092018         2.5039 
  41   0.0000       0.097000         2.6395 
  42   0.0000       0.103322         2.8115 
  43   0.0000       0.103322         2.8115 
  44   0.0000       0.107619         2.9285 
  45   0.0000       0.111674         3.0388 
  46   0.0000       0.112049         3.0490 
  47   0.0000       0.117333         3.1928 
  48   0.0000       0.117333         3.1928 
  49   0.0000       0.125653         3.4192 
  50   0.0000       0.125653         3.4192 
  51   0.0000       0.156226         4.2511 
  52   0.0000       0.182689         4.9712 
  53   0.0000       0.182689         4.9712 
  54   0.0000       0.208058         5.6615 
  55   0.0000       0.249403         6.7866 
  56   0.0000       0.249522         6.7898 
  57   0.0000       0.269906         7.3445 
  58   0.0000       0.293743         7.9931 
  59   0.0000       0.293743         7.9931 
  60   0.0000       0.332718         9.0537 
  61   0.0000       0.337468         9.1830 
  62   0.0000       0.338474         9.2103 
  63   0.0000       0.349464         9.5094 
  64   0.0000       0.364105         9.9078 
  65   0.0000       0.364105         9.9078 
  66   0.0000       0.373012        10.1502 
  67   0.0000       0.373012        10.1502 
  68   0.0000       0.385104        10.4792 
  69   0.0000       0.386791        10.5251 
  70   0.0000       0.387048        10.5321 
  71   0.0000       0.389892        10.6095 
  72   0.0000       0.406204        11.0534 
  73   0.0000       0.408134        11.1059 
  74   0.0000       0.408134        11.1059 
  75   0.0000       0.456610        12.4250 
  76   0.0000       0.456610        12.4250 
  77   0.0000       0.465604        12.6697 
  78   0.0000       0.493564        13.4306 
  79   0.0000       0.493564        13.4306 
  80   0.0000       0.555329        15.1113 
  81   0.0000       0.555629        15.1194 
  82   0.0000       0.568506        15.4698 
  83   0.0000       0.568506        15.4698 
  84   0.0000       0.584630        15.9086 
  85   0.0000       0.584630        15.9086 
  86   0.0000       0.593454        16.1487 
  87   0.0000       0.663881        18.0651 
  88   0.0000       0.664001        18.0684 
  89   0.0000       0.672171        18.2907 
  90   0.0000       0.823104        22.3978 
  91   0.0000       0.823104        22.3978 
  92   0.0000       0.828484        22.5442 
  93   0.0000       0.931870        25.3575 
  94   0.0000       0.931870        25.3575 
  95   0.0000       0.982086        26.7239 
  96   0.0000       1.013095        27.5677 
  97   0.0000       1.014116        27.5955 
  98   0.0000       1.039267        28.2799 
  99   0.0000       1.039267        28.2799 
 100   0.0000       1.104668        30.0595 
 101   0.0000       1.309282        35.6274 
 102   0.0000       1.309421        35.6312 
 103   0.0000       1.445775        39.3415 
 104   0.0000       1.454763        39.5861 
 105   0.0000       1.454763        39.5861 
 106   0.0000       1.597195        43.4619 
 107   0.0000       1.597195        43.4619 
 108   0.0000       1.608670        43.7741 
 109   0.0000       1.707543        46.4646 
 110   0.0000       1.788660        48.6719 
 111   0.0000       1.788660        48.6719 
 112   0.0000       1.791140        48.7394 
 113   0.0000       1.794171        48.8219 
 114   0.0000       1.794562        48.8325 
 115   0.0000       1.794912        48.8420 
 116   0.0000       1.902937        51.7815 
 117   0.0000       1.905858        51.8610 
 118   0.0000       1.947959        53.0066 
 119   0.0000       1.947959        53.0066 
 120   0.0000       1.963791        53.4375 
 121   0.0000       2.007319        54.6219 
 122   0.0000       2.007319        54.6219 
 123   0.0000       2.008349        54.6500 
 124   0.0000       2.008349        54.6500 
 125   0.0000       2.040886        55.5353 
 126   0.0000       2.045128        55.6508 
 127   0.0000       2.045633        55.6645 
 128   0.0000       2.126845        57.8744 
 129   0.0000       2.126845        57.8744 
 130   0.0000       2.164997        58.9126 
 131   0.0000       2.164997        58.9126 
 132   0.0000       2.250122        61.2289 
 133   0.0000       2.250122        61.2289 
 134   0.0000       2.308281        62.8115 
 135   0.0000       2.311366        62.8955 
 136   0.0000       2.320434        63.1422 
 137   0.0000       2.506548        68.2066 
 138   0.0000       2.631978        71.6198 
 139   0.0000       2.780180        75.6525 
 140   0.0000       2.780180        75.6525 
 141   0.0000       3.818419       103.9045 
 142   0.0000       5.588912       152.0820 

                    ********************************
                    * MULLIKEN POPULATION ANALYSIS *
                    ********************************

--------------------------------------------
MULLIKEN ATOMIC CHARGES AND SPIN POPULATIONS
--------------------------------------------
   0 Sc:    0.198800    1.013673
   1 S :   -0.198800   -0.013673
Sum of atomic charges         :   -0.0000000
Sum of atomic spin populations:    1.0000000

-----------------------------------------------------
MULLIKEN REDUCED ORBITAL CHARGES AND SPIN POPULATIONS
-----------------------------------------------------
CHARGE
  0 Scs       :     6.911006  s :     6.911006
      pz      :     4.139049  p :    12.279960
      px      :     4.070455
      py      :     4.070455
      dz2     :     0.673656  d :     1.552410
      dxz     :     0.439377
      dyz     :     0.439377
      dx2y2   :     0.000000
      dxy     :     0.000000
      f0      :     0.005296  f :     0.045461
      f+1     :     0.020083
      f-1     :     0.020083
      f+2     :     0.000000
      f-2     :     0.000000
      f+3     :     0.000000
      f-3     :     0.000000
      g0      :     0.000997  g :     0.012362
      g+1     :     0.005682
      g-1     :     0.005682
      g+2     :     0.000000
      g-2     :     0.000000
      g+3     :     0.000000
      g-3     :     0.000000
      g+4     :     0.000000
      g-4     :     0.000000
  1 S s       :     5.916383  s :     5.916383
      pz      :     3.341824  p :    10.246035
      px      :     3.452105
      py      :     3.452105
      dz2     :     0.008073  d :     0.029712
      dxz     :     0.010819
      dyz     :     0.010819
      dx2y2   :     0.000000
      dxy     :     0.000000
      f0      :     0.003716  f :     0.006671
      f+1     :     0.001477
      f-1     :     0.001477
      f+2     :     0.000000
      f-2     :    -0.000000
      f+3     :     0.000000
      f-3     :     0.000000

SPIN
  0 Scs       :     0.636447  s :     0.636447
      pz      :     0.099799  p :     0.109338
      px      :     0.004769
      py      :     0.004769
      dz2     :     0.237974  d :     0.271857
      dxz     :     0.016942
      dyz     :     0.016942
      dx2y2   :     0.000000
      dxy     :     0.000000
      f0      :    -0.000045  f :    -0.003192
      f+1     :    -0.001574
      f-1     :    -0.001574
      f+2     :     0.000000
      f-2     :     0.000000
      f+3     :     0.000000
      f-3     :     0.000000
      g0      :     0.000120  g :    -0.000777
      g+1     :    -0.000448
      g-1     :    -0.000448
      g+2     :    -0.000000
      g-2     :     0.000000
      g+3     :     0.000000
      g-3     :     0.000000
      g+4     :     0.000000
      g-4     :    -0.000000
  1 S s       :     0.062763  s :     0.062763
      pz      :    -0.038153  p :    -0.077558
      px      :    -0.019703
      py      :    -0.019703
      dz2     :    -0.000331  d :    -0.000022
      dxz     :     0.000155
      dyz     :     0.000155
      dx2y2   :     0.000000
      dxy     :    -0.000000
      f0      :     0.001426  f :     0.001144
      f+1     :    -0.000141
      f-1     :    -0.000141
      f+2     :     0.000000
      f-2     :    -0.000000
      f+3     :    -0.000000
      f-3     :    -0.000000


                     *******************************
                     * LOEWDIN POPULATION ANALYSIS *
                     *******************************

-------------------------------------------
LOEWDIN ATOMIC CHARGES AND SPIN POPULATIONS
-------------------------------------------
   0 Sc:    0.097509    0.918296
   1 S :   -0.097509    0.081704

----------------------------------------------------
LOEWDIN REDUCED ORBITAL CHARGES AND SPIN POPULATIONS
----------------------------------------------------
CHARGE
  0 Scs       :     6.485536  s :     6.485536
      pz      :     4.224318  p :    12.128193
      px      :     3.951938
      py      :     3.951938
      dz2     :     0.845072  d :     1.822095
      dxz     :     0.488512
      dyz     :     0.488512
      dx2y2   :     0.000000
      dxy     :     0.000000
      f0      :     0.122079  f :     0.298809
      f+1     :     0.088365
      f-1     :     0.088365
      f+2     :     0.000000
      f-2     :     0.000000
      f+3     :     0.000000
      f-3     :     0.000000
      g0      :     0.064207  g :     0.167858
      g+1     :     0.051825
      g-1     :     0.051825
      g+2     :     0.000000
      g-2     :     0.000000
      g+3     :     0.000000
      g-3     :     0.000000
      g+4     :     0.000000
      g-4     :     0.000000
  1 S s       :     5.395409  s :     5.395409
      pz      :     3.511697  p :    10.077682
      px      :     3.282992
      py      :     3.282992
      dz2     :     0.225561  d :     0.378457
      dxz     :     0.076448
      dyz     :     0.076448
      dx2y2   :     0.000000
      dxy     :     0.000000
      f0      :     0.126121  f :     0.245962
      f+1     :     0.059920
      f-1     :     0.059920
      f+2     :     0.000000
      f-2     :     0.000000
      f+3     :     0.000000
      f-3     :     0.000000

SPIN
  0 Scs       :     0.609969  s :     0.609969
      pz      :     0.076070  p :     0.078640
      px      :     0.001285
      py      :     0.001285
      dz2     :     0.217439  d :     0.238795
      dxz     :     0.010678
      dyz     :     0.010678
      dx2y2   :     0.000000
      dxy     :     0.000000
      f0      :     0.000168  f :    -0.006613
      f+1     :    -0.003390
      f-1     :    -0.003390
      f+2     :     0.000000
      f-2     :     0.000000
      f+3     :     0.000000
      f-3     :     0.000000
      g0      :    -0.000400  g :    -0.002496
      g+1     :    -0.001048
      g-1     :    -0.001048
      g+2     :     0.000000
      g-2     :     0.000000
      g+3     :     0.000000
      g-3     :     0.000000
      g+4     :     0.000000
      g-4     :    -0.000000
  1 S s       :     0.038314  s :     0.038314
      pz      :     0.049804  p :     0.030944
      px      :    -0.009430
      py      :    -0.009430
      dz2     :     0.006201  d :     0.009270
      dxz     :     0.001535
      dyz     :     0.001535
      dx2y2   :     0.000000
      dxy     :    -0.000000
      f0      :     0.002435  f :     0.003176
      f+1     :     0.000370
      f-1     :     0.000370
      f+2     :     0.000000
      f-2     :     0.000000
      f+3     :    -0.000000
      f-3     :    -0.000000


                      *****************************
                      * MAYER POPULATION ANALYSIS *
                      *****************************

  NA   - Mulliken gross atomic population
  ZA   - Total nuclear charge
  QA   - Mulliken gross atomic charge
  VA   - Mayer's total valence
  BVA  - Mayer's bonded valence
  FA   - Mayer's free valence

  ATOM       NA         ZA         QA         VA         BVA        FA
  0 Sc    20.8012    21.0000     0.1988     3.5713     2.6881     0.8832
  1 S     16.1988    16.0000    -0.1988     2.6951     2.6881     0.0070

  Mayer bond orders larger than 0.100000
B(  0-Sc,  1-S ) :   2.6881 

-------
TIMINGS
-------

Total SCF time: 0 days 0 hours 0 min 4 sec 

Total time                  ....       4.140 sec
Sum of individual times     ....       3.996 sec  ( 96.5%)

Fock matrix formation       ....       3.419 sec  ( 82.6%)
  Split-RI-J                ....       2.784 sec  ( 81.4% of F)
  XC integration            ....       0.438 sec  ( 12.8% of F)
    Basis function eval.    ....       0.051 sec  ( 11.5% of XC)
    Density eval.           ....       0.064 sec  ( 14.7% of XC)
    XC-Functional eval.     ....       0.013 sec  (  2.9% of XC)
    XC-Potential eval.      ....       0.189 sec  ( 43.1% of XC)
Diagonalization             ....       0.110 sec  (  2.7%)
Density matrix formation    ....       0.014 sec  (  0.3%)
Population analysis         ....       0.007 sec  (  0.2%)
Initial guess               ....       0.104 sec  (  2.5%)
Orbital Transformation      ....       0.000 sec  (  0.0%)
Orbital Orthonormalization  ....       0.000 sec  (  0.0%)
DIIS solution               ....       0.038 sec  (  0.9%)
Grid generation             ....       0.304 sec  (  7.3%)


-------------------------------------------------------------------------------
                          DFT DISPERSION CORRECTION                            
                                                                               
                              DFTD3 V3.1  Rev 1                                
                          USING Becke-Johnson damping                          
-------------------------------------------------------------------------------
The TPSS functional is recognized
Active option DFTDOPT                   ...         4   

molecular C6(AA) [au] = 1164.872355 


            DFT-D V3
 parameters
 s6 scaling factor         :     1.0000 
 a1 scaling factor         :     0.4535 
 s8 scaling factor         :     1.9435 
 a2 scaling factor         :     4.4752 
 ad hoc parameters k1-k3   :    16.0000     1.3333    -4.0000 

 Edisp/kcal,au: -1.255784288552  -0.002001219434 
 E6   /kcal   :  -0.398571450 
 E8   /kcal   :  -0.857212838 
 % E8         :  68.261153304 

-------------------------   ----------------
Dispersion correction           -0.002001219
-------------------------   ----------------


-------------------------   --------------------
FINAL SINGLE POINT ENERGY     -1158.977016161698
-------------------------   --------------------



           ************************************************************
           *        Program running with 24 parallel MPI-processes    *
           *              working on a common directory               *
           ************************************************************
------------------------------------------------------------------------------
                         ORCA SCF GRADIENT CALCULATION
------------------------------------------------------------------------------

Gradient of the Kohn-Sham DFT energy:
Kohn-Sham wavefunction type      ... UKS
Hartree-Fock exchange scaling    ...    0.000
Number of operators              ...    2
Number of atoms                  ...    2
Basis set dimensions             ...  143
Integral neglect threshold       ... 2.5e-11
Integral primitive cutoff        ... 2.5e-12

Nuclear repulsion gradient       ... done
One Electron Gradient            ... done
Pre-screening matrix             ... done
RI-J gradient                    ... done
Exchange-correlation gradient    ... done
Dispersion correction            ... done

------------------
CARTESIAN GRADIENT
------------------

   1   Sc  :    0.000000014    0.000000003    0.080305730
   2   S   :   -0.000000004   -0.000000000   -0.077261248

Difference to translation invariance:
           :    0.0000000100    0.0000000023    0.0030444813

Norm of the cartesian gradient     ...    0.1114374744
RMS gradient                       ...    0.0454941584
MAX gradient                       ...    0.0803057296

-------
TIMINGS
-------

Total SCF gradient time            ...        4.549 sec

One electron gradient       ....       0.051 sec  (  1.1%)
Prescreening matrices       ....       3.643 sec  ( 80.1%)
RI-J Coulomb gradient       ....       0.264 sec  (  5.8%)
XC gradient                 ....       0.055 sec  (  1.2%)
------------------------------------------------------------------------------
                         ORCA GEOMETRY RELAXATION STEP
------------------------------------------------------------------------------

Reading the OPT-File                    .... done
Getting information on internals        .... done
Copying old internal coords+grads       .... done
Making the new internal coordinates     .... (new redundants).... done
Validating the new internal coordinates .... (new redundants).... done
Calculating the B-matrix                .... done
Calculating the G,G- and P matrices     .... done
Transforming gradient to internals      .... done
Projecting the internal gradient        .... done
Number of atoms                         ....   2
Number of internal coordinates          ....   1
Current Energy                          .... -1158.977016162 Eh
Current gradient norm                   ....     0.111437474 Eh/bohr
Maximum allowed component of the step   ....  0.300
Current trust radius                    ....  0.300
Evaluating the initial hessian          ....  (Almloef) done
Projecting the Hessian                  .... done
Forming the augmented Hessian           .... done
Diagonalizing the augmented Hessian     .... done
Last element of RFO vector              ....  0.999060790
Lowest eigenvalues of augmented Hessian:
 -0.003416942
Length of the computed step             ....  0.043371301
The final length of the internal step   ....  0.043371301
Converting the step to cartesian space:
 Initial RMS(Int)=    0.0433713014
Transforming coordinates:
 Iter   0:  RMS(Cart)=    0.0125202163 RMS(Int)=    0.0433713014
 Iter   1:  RMS(Cart)=    0.0000000000 RMS(Int)=    0.0000000000
done
Storing new coordinates                 .... done

                                .--------------------.
          ----------------------|Geometry convergence|-------------------------
          Item                value                   Tolerance       Converged
          ---------------------------------------------------------------------
          RMS gradient        0.0787834890            0.0001000000      NO
          MAX gradient        0.0787834890            0.0003000000      NO
          RMS step            0.0433713014            0.0020000000      NO
          MAX step            0.0433713014            0.0040000000      NO
          ........................................................
          Max(Bonds)      0.0230      Max(Angles)    0.00
          Max(Dihed)        0.00      Max(Improp)    0.00
          ---------------------------------------------------------------------

The optimization has not yet converged - more geometry cycles are needed


    ---------------------------------------------------------------------------
                         Redundant Internal Coordinates
                            (Angstroem and degrees)

        Definition                    Value    dE/dq     Step     New-Value
    ----------------------------------------------------------------------------
     1. B(S   1,Sc  0)                2.0000 -0.078783  0.0230    2.0230   
    ----------------------------------------------------------------------------

         *************************************************************
         *                GEOMETRY OPTIMIZATION CYCLE   2            *
         *************************************************************
---------------------------------
CARTESIAN COORDINATES (ANGSTROEM)
---------------------------------
  Sc     0.000000    0.000000   -0.011476
  S      0.000000    0.000000    2.011476

----------------------------
CARTESIAN COORDINATES (A.U.)
----------------------------
  NO LB      ZA    FRAG     MASS         X           Y           Z
   0 Sc   21.0000    0    44.960    0.000000    0.000000   -0.021686
   1 S    16.0000    0    32.060    0.000000    0.000000    3.801138

--------------------------------
INTERNAL COORDINATES (ANGSTROEM)
--------------------------------
 Sc     0   0   0     0.000000000000     0.00000000     0.00000000
 S      1   0   0     2.022951104220     0.00000000     0.00000000

---------------------------
INTERNAL COORDINATES (A.U.)
---------------------------
 Sc     0   0   0     0.000000000000     0.00000000     0.00000000
 S      1   0   0     3.822823569289     0.00000000     0.00000000



           ************************************************************
           *        Program running with 24 parallel MPI-processes    *
           *              working on a common directory               *
           ************************************************************
 One Electron integrals                  ... done
 Pre-screening matrix                    ... done


           ************************************************************
           *        Program running with 24 parallel MPI-processes    *
           *              working on a common directory               *
           ************************************************************

Diagonalization of the overlap matrix:
Smallest eigenvalue                        ... 5.866e-05
Time for diagonalization                   ...    0.006 sec
Threshold for overlap eigenvalues          ... 1.000e-08
Number of eigenvalues below threshold      ... 0
Time for construction of square roots      ...    0.002 sec
Total time needed                          ...    0.008 sec

-------------------
DFT GRID GENERATION
-------------------

General Integration Accuracy     IntAcc      ...  4.340
Radial Grid Type                 RadialGrid  ... Gauss-Chebyshev
Angular Grid (max. acc.)         AngularGrid ... Lebedev-110
Angular grid pruning method      GridPruning ... 3 (G Style)
Weight generation scheme         WeightScheme... Becke
Basis function cutoff            BFCut       ...    1.0000e-11
Integration weight cutoff        WCut        ...    1.0000e-14
Grids for H and He will be reduced by one unit

# of grid points (after initial pruning)     ...   4778 (   0.0 sec)
# of grid points (after weights+screening)   ...   4752 (   0.0 sec)
nearest neighbour list constructed           ...    0.0 sec
Grid point re-assignment to atoms done       ...    0.0 sec
Grid point division into batches done        ...    0.0 sec
Reduced shell lists constructed in    0.0 sec

Total number of grid points                  ...     4752
Total number of batches                      ...       76
Average number of points per batch           ...       62
Average number of grid points per atom       ...     2376
Average number of shells per batch           ...    25.60 (62.44%)
Average number of basis functions per batch  ...    91.20 (63.78%)
Average number of large shells per batch     ...    20.80 (81.25%)
Average number of large basis fcns per batch ...    73.60 (80.70%)
Maximum spatial batch extension              ...  20.56, 31.13, 17.28 au
Average spatial batch extension              ...   0.99,  1.37,  0.91 au

Time for grid setup =    0.020 sec

--------------
SCF ITERATIONS
--------------
ITER       Energy         Delta-E        Max-DP      RMS-DP      [F,P]     Damp
               ***  Starting incremental Fock matrix formation  ***
  0  -1158.9765006100   0.000000000000 0.00141688  0.00003879  0.0107568 0.7000
  1  -1158.9765263879  -0.000025777900 0.00148128  0.00003438  0.0075251 0.7000
                               ***Turning on DIIS***
  2  -1158.9765435036  -0.000017115689 0.00354228  0.00009003  0.0052619 0.0000
  3  -1158.9765810212  -0.000037517613 0.00259713  0.00003536  0.0008581 0.0000
  4  -1158.9765715703   0.000009450925 0.00176543  0.00002883  0.0022928 0.0000
  5  -1158.9765819882  -0.000010417913 0.00148454  0.00002008  0.0007007 0.0000
  6  -1158.9765836475  -0.000001659317 0.00026227  0.00000585  0.0003624 0.0000
  7  -1158.9765838988  -0.000000251252 0.00016118  0.00000261  0.0000668 0.0000
  8  -1158.9765839061  -0.000000007310 0.00006460  0.00000119  0.0000464 0.0000
  9  -1158.9765839215  -0.000000015479 0.00006817  0.00000080  0.0000090 0.0000
 10  -1158.9765839435  -0.000000021955 0.00003554  0.00000037  0.0000016 0.0000
 11  -1158.9765839155   0.000000027978 0.00001603  0.00000014  0.0000013 0.0000
                            ***DIIS convergence achieved***

               *****************************************************
               *                     SUCCESS                       *
               *           SCF CONVERGED AFTER  12 CYCLES          *
               *****************************************************

Setting up the final grid:

General Integration Accuracy     IntAcc      ...  4.670
Radial Grid Type                 RadialGrid  ... Gauss-Chebyshev
Angular Grid (max. acc.)         AngularGrid ... Lebedev-302
Angular grid pruning method      GridPruning ... 3 (G Style)
Weight generation scheme         WeightScheme... Becke
Basis function cutoff            BFCut       ...    1.0000e-11
Integration weight cutoff        WCut        ...    1.0000e-14
Grids for H and He will be reduced by one unit

# of grid points (after initial pruning)     ...  16510 (   0.0 sec)
# of grid points (after weights+screening)   ...  16480 (   0.0 sec)
nearest neighbour list constructed           ...    0.0 sec
Grid point re-assignment to atoms done       ...    0.0 sec
Grid point division into batches done        ...    0.1 sec
Reduced shell lists constructed in    0.1 sec

Total number of grid points                  ...    16480
Total number of batches                      ...      258
Average number of points per batch           ...       63
Average number of grid points per atom       ...     8240
Average number of shells per batch           ...    22.92 (55.89%)
Average number of basis functions per batch  ...    72.42 (50.64%)
Average number of large shells per batch     ...    14.67 (64.00%)
Average number of large basis fcns per batch ...    47.50 (65.59%)
Maximum spatial batch extension              ...  26.53, 26.21, 18.60 au
Average spatial batch extension              ...   0.91,  0.90,  0.69 au

Final grid set up in    0.1 sec
Final integration                            ... done (   0.1 sec)
Change in XC energy                          ...    -0.001469677
Integrated number of electrons               ...    36.999985750
Previous integrated no of electrons          ...    36.999587826
Total Energy       :        -1158.97805359 Eh          -31537.39617 eV
  Last Energy change         ...   -1.2383e-09  Tolerance :   1.0000e-08
  Last MAX-Density change    ...    2.2426e-06  Tolerance :   1.0000e-07
             **** THE GBW FILE WAS UPDATED (06_ScS.gbw) ****
             **** DENSITY FILE WAS UPDATED (06_ScS.scfp) ****
             **** ENERGY FILE WAS UPDATED (06_ScS.en.tmp) ****
----------------------
UHF SPIN CONTAMINATION
----------------------

Warning: in a DFT calculation there is little theoretical justification to 
         calculate <S**2> as in Hartree-Fock theory. We will do it anyways
         but you should keep in mind that the values have only limited relevance

Expectation value of <S**2>     :     0.752469
Ideal value S*(S+1) for S=0.5   :     0.750000
Deviation                       :     0.002469

             **** THE GBW FILE WAS UPDATED (06_ScS.gbw) ****
             **** DENSITY FILE WAS UPDATED (06_ScS.scfp) ****
Total SCF time: 0 days 0 hours 0 min 2 sec 


-------------------------------------------------------------------------------
                          DFT DISPERSION CORRECTION                            
                                                                               
                              DFTD3 V3.1  Rev 1                                
                          USING Becke-Johnson damping                          
-------------------------------------------------------------------------------
-------------------------   ----------------
Dispersion correction           -0.002000847
-------------------------   ----------------


-------------------------   --------------------
FINAL SINGLE POINT ENERGY     -1158.980054440418
-------------------------   --------------------



           ************************************************************
           *        Program running with 24 parallel MPI-processes    *
           *              working on a common directory               *
           ************************************************************
------------------------------------------------------------------------------
                         ORCA SCF GRADIENT CALCULATION
------------------------------------------------------------------------------

Gradient of the Kohn-Sham DFT energy:
Kohn-Sham wavefunction type      ... UKS
Hartree-Fock exchange scaling    ...    0.000
Number of operators              ...    2
Number of atoms                  ...    2
Basis set dimensions             ...  143
Integral neglect threshold       ... 2.5e-11
Integral primitive cutoff        ... 2.5e-12

Nuclear repulsion gradient       ... done
One Electron Gradient            ... done
Pre-screening matrix             ... done
RI-J gradient                    ... done
Exchange-correlation gradient    ... done
Dispersion correction            ... done

------------------
CARTESIAN GRADIENT
------------------

   1   Sc  :    0.000000003    0.000000017    0.064486983
   2   S   :   -0.000000003   -0.000000019   -0.061714522

Difference to translation invariance:
           :    0.0000000005   -0.0000000026    0.0027724611

Norm of the cartesian gradient     ...    0.0892594714
RMS gradient                       ...    0.0364400266
MAX gradient                       ...    0.0644869832

-------
TIMINGS
-------

Total SCF gradient time            ...        4.562 sec

One electron gradient       ....       0.051 sec  (  1.1%)
Prescreening matrices       ....       3.655 sec  ( 80.1%)
RI-J Coulomb gradient       ....       0.261 sec  (  5.7%)
XC gradient                 ....       0.054 sec  (  1.2%)
------------------------------------------------------------------------------
                         ORCA GEOMETRY RELAXATION STEP
------------------------------------------------------------------------------

Reading the OPT-File                    .... done
Getting information on internals        .... done
Copying old internal coords+grads       .... done
Making the new internal coordinates     .... (new redundants).... done
Validating the new internal coordinates .... (new redundants).... done
Calculating the B-matrix                .... done
Calculating the G,G- and P matrices     .... done
Transforming gradient to internals      .... done
Projecting the internal gradient        .... done
Number of atoms                         ....   2
Number of internal coordinates          ....   1
Current Energy                          .... -1158.980054440 Eh
Current gradient norm                   ....     0.089259471 Eh/bohr
Maximum allowed component of the step   ....  0.300
Current trust radius                    ....  0.300
Updating the Hessian (BFGS)             .... done
Forming the augmented Hessian           .... done
Diagonalizing the augmented Hessian     .... done
Last element of RFO vector              ....  0.985938060
Lowest eigenvalues of augmented Hessian:
 -0.010695236
Length of the computed step             ....  0.169494588
The final length of the internal step   ....  0.169494588
Converting the step to cartesian space:
 Initial RMS(Int)=    0.1694945877
Transforming coordinates:
 Iter   0:  RMS(Cart)=    0.0489288729 RMS(Int)=    0.1694945877
 Iter   1:  RMS(Cart)=    0.0000000000 RMS(Int)=    0.0000000000
done
Storing new coordinates                 .... done

                                .--------------------.
          ----------------------|Geometry convergence|-------------------------
          Item                value                   Tolerance       Converged
          ---------------------------------------------------------------------
          Energy change      -0.0030382787            0.0000050000      NO
          RMS gradient        0.0631007526            0.0001000000      NO
          MAX gradient        0.0631007526            0.0003000000      NO
          RMS step            0.1694945877            0.0020000000      NO
          MAX step            0.1694945877            0.0040000000      NO
          ........................................................
          Max(Bonds)      0.0897      Max(Angles)    0.00
          Max(Dihed)        0.00      Max(Improp)    0.00
          ---------------------------------------------------------------------

The optimization has not yet converged - more geometry cycles are needed


    ---------------------------------------------------------------------------
                         Redundant Internal Coordinates
                            (Angstroem and degrees)

        Definition                    Value    dE/dq     Step     New-Value
    ----------------------------------------------------------------------------
     1. B(S   1,Sc  0)                2.0230 -0.063101  0.0897    2.1126   
    ----------------------------------------------------------------------------

         *************************************************************
         *                GEOMETRY OPTIMIZATION CYCLE   3            *
         *************************************************************
---------------------------------
CARTESIAN COORDINATES (ANGSTROEM)
---------------------------------
  Sc     0.000000    0.000000   -0.056322
  S      0.000000    0.000000    2.056322

----------------------------
CARTESIAN COORDINATES (A.U.)
----------------------------
  NO LB      ZA    FRAG     MASS         X           Y           Z
   0 Sc   21.0000    0    44.960    0.000000    0.000000   -0.106433
   1 S    16.0000    0    32.060    0.000000    0.000000    3.885885

--------------------------------
INTERNAL COORDINATES (ANGSTROEM)
--------------------------------
 Sc     0   0   0     0.000000000000     0.00000000     0.00000000
 S      1   0   0     2.112643776936     0.00000000     0.00000000

---------------------------
INTERNAL COORDINATES (A.U.)
---------------------------
 Sc     0   0   0     0.000000000000     0.00000000     0.00000000
 S      1   0   0     3.992318156942     0.00000000     0.00000000



           ************************************************************
           *        Program running with 24 parallel MPI-processes    *
           *              working on a common directory               *
           ************************************************************
 One Electron integrals                  ... done
 Pre-screening matrix                    ... done


           ************************************************************
           *        Program running with 24 parallel MPI-processes    *
           *              working on a common directory               *
           ************************************************************

Diagonalization of the overlap matrix:
Smallest eigenvalue                        ... 6.161e-05
Time for diagonalization                   ...    0.005 sec
Threshold for overlap eigenvalues          ... 1.000e-08
Number of eigenvalues below threshold      ... 0
Time for construction of square roots      ...    0.002 sec
Total time needed                          ...    0.007 sec

-------------------
DFT GRID GENERATION
-------------------

General Integration Accuracy     IntAcc      ...  4.340
Radial Grid Type                 RadialGrid  ... Gauss-Chebyshev
Angular Grid (max. acc.)         AngularGrid ... Lebedev-110
Angular grid pruning method      GridPruning ... 3 (G Style)
Weight generation scheme         WeightScheme... Becke
Basis function cutoff            BFCut       ...    1.0000e-11
Integration weight cutoff        WCut        ...    1.0000e-14
Grids for H and He will be reduced by one unit

# of grid points (after initial pruning)     ...   4778 (   0.0 sec)
# of grid points (after weights+screening)   ...   4752 (   0.0 sec)
nearest neighbour list constructed           ...    0.0 sec
Grid point re-assignment to atoms done       ...    0.0 sec
Grid point division into batches done        ...    0.0 sec
Reduced shell lists constructed in    0.0 sec

Total number of grid points                  ...     4752
Total number of batches                      ...       76
Average number of points per batch           ...       62
Average number of grid points per atom       ...     2376
Average number of shells per batch           ...    25.60 (62.44%)
Average number of basis functions per batch  ...    91.20 (63.78%)
Average number of large shells per batch     ...    20.80 (81.25%)
Average number of large basis fcns per batch ...    73.60 (80.70%)
Maximum spatial batch extension              ...  20.56, 31.13, 17.50 au
Average spatial batch extension              ...   0.99,  1.36,  0.92 au

Time for grid setup =    0.020 sec

--------------
SCF ITERATIONS
--------------
ITER       Energy         Delta-E        Max-DP      RMS-DP      [F,P]     Damp
               ***  Starting incremental Fock matrix formation  ***
  0  -1158.9816156951   0.000000000000 0.00635595  0.00014054  0.0402903 0.7000
  1  -1158.9819358743  -0.000320179212 0.00657190  0.00012531  0.0281909 0.7000
                               ***Turning on DIIS***
  2  -1158.9821515377  -0.000215663415 0.01673868  0.00032725  0.0197156 0.0000
  3  -1158.9826239368  -0.000472399091 0.01180654  0.00010405  0.0030400 0.0000
  4  -1158.9826405096  -0.000016572748 0.00793416  0.00010370  0.0024809 0.0000
  5  -1158.9826557857  -0.000015276114 0.00414943  0.00005699  0.0005190 0.0000
  6  -1158.9826594651  -0.000003679370 0.00155813  0.00002074  0.0005056 0.0000
  7  -1158.9826597047  -0.000000239599 0.00077529  0.00000991  0.0004909 0.0000
  8  -1158.9826601832  -0.000000478503 0.00030103  0.00000400  0.0000537 0.0000
  9  -1158.9826602330  -0.000000049841 0.00007153  0.00000134  0.0000108 0.0000
 10  -1158.9826602101   0.000000022897 0.00002724  0.00000051  0.0000063 0.0000
 11  -1158.9826601929   0.000000017196 0.00001201  0.00000020  0.0000021 0.0000
 12  -1158.9826601656   0.000000027367 0.00000495  0.00000007  0.0000011 0.0000
                 **** Energy Check signals convergence ****

               *****************************************************
               *                     SUCCESS                       *
               *           SCF CONVERGED AFTER  13 CYCLES          *
               *****************************************************

Setting up the final grid:

General Integration Accuracy     IntAcc      ...  4.670
Radial Grid Type                 RadialGrid  ... Gauss-Chebyshev
Angular Grid (max. acc.)         AngularGrid ... Lebedev-302
Angular grid pruning method      GridPruning ... 3 (G Style)
Weight generation scheme         WeightScheme... Becke
Basis function cutoff            BFCut       ...    1.0000e-11
Integration weight cutoff        WCut        ...    1.0000e-14
Grids for H and He will be reduced by one unit

# of grid points (after initial pruning)     ...  16510 (   0.0 sec)
# of grid points (after weights+screening)   ...  16481 (   0.0 sec)
nearest neighbour list constructed           ...    0.0 sec
Grid point re-assignment to atoms done       ...    0.0 sec
Grid point division into batches done        ...    0.1 sec
Reduced shell lists constructed in    0.1 sec

Total number of grid points                  ...    16481
Total number of batches                      ...      258
Average number of points per batch           ...       63
Average number of grid points per atom       ...     8240
Average number of shells per batch           ...    22.92 (55.89%)
Average number of basis functions per batch  ...    72.42 (50.64%)
Average number of large shells per batch     ...    14.58 (63.64%)
Average number of large basis fcns per batch ...    47.42 (65.48%)
Maximum spatial batch extension              ...  26.53, 26.21, 18.77 au
Average spatial batch extension              ...   0.91,  0.90,  0.69 au

Final grid set up in    0.1 sec
Final integration                            ... done (   0.1 sec)
Change in XC energy                          ...    -0.001512234
Integrated number of electrons               ...    37.000007127
Previous integrated no of electrons          ...    36.999547106
Total Energy       :        -1158.98417239 Eh          -31537.56267 eV
  Last Energy change         ...    4.7612e-09  Tolerance :   1.0000e-08
  Last MAX-Density change    ...    3.6087e-06  Tolerance :   1.0000e-07
             **** THE GBW FILE WAS UPDATED (06_ScS.gbw) ****
             **** DENSITY FILE WAS UPDATED (06_ScS.scfp) ****
             **** ENERGY FILE WAS UPDATED (06_ScS.en.tmp) ****
----------------------
UHF SPIN CONTAMINATION
----------------------

Warning: in a DFT calculation there is little theoretical justification to 
         calculate <S**2> as in Hartree-Fock theory. We will do it anyways
         but you should keep in mind that the values have only limited relevance

Expectation value of <S**2>     :     0.752979
Ideal value S*(S+1) for S=0.5   :     0.750000
Deviation                       :     0.002979

             **** THE GBW FILE WAS UPDATED (06_ScS.gbw) ****
             **** DENSITY FILE WAS UPDATED (06_ScS.scfp) ****
Total SCF time: 0 days 0 hours 0 min 2 sec 


-------------------------------------------------------------------------------
                          DFT DISPERSION CORRECTION                            
                                                                               
                              DFTD3 V3.1  Rev 1                                
                          USING Becke-Johnson damping                          
-------------------------------------------------------------------------------
-------------------------   ----------------
Dispersion correction           -0.001999604
-------------------------   ----------------


-------------------------   --------------------
FINAL SINGLE POINT ENERGY     -1158.986171997877
-------------------------   --------------------



           ************************************************************
           *        Program running with 24 parallel MPI-processes    *
           *              working on a common directory               *
           ************************************************************
------------------------------------------------------------------------------
                         ORCA SCF GRADIENT CALCULATION
------------------------------------------------------------------------------

Gradient of the Kohn-Sham DFT energy:
Kohn-Sham wavefunction type      ... UKS
Hartree-Fock exchange scaling    ...    0.000
Number of operators              ...    2
Number of atoms                  ...    2
Basis set dimensions             ...  143
Integral neglect threshold       ... 2.5e-11
Integral primitive cutoff        ... 2.5e-12

Nuclear repulsion gradient       ... done
One Electron Gradient            ... done
Pre-screening matrix             ... done
RI-J gradient                    ... done
Exchange-correlation gradient    ... done
Dispersion correction            ... done

------------------
CARTESIAN GRADIENT
------------------

   1   Sc  :   -0.000000010    0.000000000    0.014141003
   2   S   :    0.000000008    0.000000003   -0.011605812

Difference to translation invariance:
           :   -0.0000000015    0.0000000032    0.0025351914

Norm of the cartesian gradient     ...    0.0182937927
RMS gradient                       ...    0.0074684096
MAX gradient                       ...    0.0141410034

-------
TIMINGS
-------

[...]
 113   0.0000       1.777505        48.3684 
 114   0.0000       1.777505        48.3684 
 115   0.0000       1.778031        48.3827 
 116   0.0000       1.884290        51.2741 
 117   0.0000       1.904596        51.8267 
 118   0.0000       1.905693        51.8565 
 119   0.0000       1.910848        51.9968 
 120   0.0000       1.910848        51.9968 
 121   0.0000       1.983741        53.9803 
 122   0.0000       1.983741        53.9803 
 123   0.0000       1.990492        54.1640 
 124   0.0000       2.021908        55.0189 
 125   0.0000       2.021908        55.0189 
 126   0.0000       2.032697        55.3125 
 127   0.0000       2.033269        55.3281 
 128   0.0000       2.105984        57.3067 
 129   0.0000       2.105984        57.3067 
 130   0.0000       2.161331        58.8128 
 131   0.0000       2.161331        58.8128 
 132   0.0000       2.223324        60.4997 
 133   0.0000       2.223324        60.4997 
 134   0.0000       2.231923        60.7337 
 135   0.0000       2.260493        61.5111 
 136   0.0000       2.267313        61.6967 
 137   0.0000       2.390743        65.0554 
 138   0.0000       2.501437        68.0675 
 139   0.0000       2.636344        71.7386 
 140   0.0000       2.636344        71.7386 
 141   0.0000       3.468886        94.3932 
 142   0.0000       5.359032       145.8267 

                 SPIN DOWN ORBITALS
  NO   OCC          E(Eh)            E(eV) 
   0   1.0000    -161.045953     -4382.2832 
   1   1.0000     -88.326427     -2403.4843 
   2   1.0000     -17.329850      -471.5692 
   3   1.0000     -14.274259      -388.4223 
   4   1.0000     -14.274259      -388.4223 
   5   1.0000     -14.263390      -388.1266 
   6   1.0000      -7.683138      -209.0688 
   7   1.0000      -5.661291      -154.0516 
   8   1.0000      -5.661291      -154.0516 
   9   1.0000      -5.659769      -154.0102 
  10   1.0000      -2.010855       -54.7181 
  11   1.0000      -1.238061       -33.6894 
  12   1.0000      -1.238061       -33.6894 
  13   1.0000      -1.216394       -33.0998 
  14   1.0000      -0.563809       -15.3420 
  15   1.0000      -0.225248        -6.1293 
  16   1.0000      -0.214154        -5.8274 
  17   1.0000      -0.214154        -5.8274 
  18   0.0000      -0.127851        -3.4790 
  19   0.0000      -0.110327        -3.0021 
  20   0.0000      -0.110247        -3.0000 
  21   0.0000      -0.089297        -2.4299 
  22   0.0000      -0.089297        -2.4299 
  23   0.0000      -0.071994        -1.9591 
  24   0.0000      -0.022120        -0.6019 
  25   0.0000      -0.022120        -0.6019 
  26   0.0000       0.008153         0.2219 
  27   0.0000       0.010276         0.2796 
  28   0.0000       0.022351         0.6082 
  29   0.0000       0.022351         0.6082 
  30   0.0000       0.028042         0.7631 
  31   0.0000       0.028139         0.7657 
  32   0.0000       0.029432         0.8009 
  33   0.0000       0.029432         0.8009 
  34   0.0000       0.030353         0.8260 
  35   0.0000       0.054348         1.4789 
  36   0.0000       0.080539         2.1916 
  37   0.0000       0.084634         2.3030 
  38   0.0000       0.084716         2.3052 
  39   0.0000       0.091181         2.4812 
  40   0.0000       0.091181         2.4812 
  41   0.0000       0.094968         2.5842 
  42   0.0000       0.101182         2.7533 
  43   0.0000       0.101182         2.7533 
  44   0.0000       0.106249         2.8912 
  45   0.0000       0.110826         3.0157 
  46   0.0000       0.111019         3.0210 
  47   0.0000       0.115824         3.1517 
  48   0.0000       0.115824         3.1517 
  49   0.0000       0.123826         3.3695 
  50   0.0000       0.123826         3.3695 
  51   0.0000       0.149822         4.0769 
  52   0.0000       0.177598         4.8327 
  53   0.0000       0.177598         4.8327 
  54   0.0000       0.202443         5.5088 
  55   0.0000       0.250123         6.8062 
  56   0.0000       0.250352         6.8124 
  57   0.0000       0.256958         6.9922 
  58   0.0000       0.286491         7.7958 
  59   0.0000       0.286491         7.7958 
  60   0.0000       0.324726         8.8362 
  61   0.0000       0.330205         8.9853 
  62   0.0000       0.331003         9.0070 
  63   0.0000       0.343589         9.3495 
  64   0.0000       0.363063         9.8794 
  65   0.0000       0.363063         9.8794 
  66   0.0000       0.371798        10.1171 
  67   0.0000       0.371798        10.1171 
  68   0.0000       0.385929        10.5017 
  69   0.0000       0.388115        10.5611 
  70   0.0000       0.388234        10.5644 
  71   0.0000       0.390044        10.6136 
  72   0.0000       0.402104        10.9418 
  73   0.0000       0.407915        11.0999 
  74   0.0000       0.407915        11.0999 
  75   0.0000       0.446558        12.1515 
  76   0.0000       0.447098        12.1662 
  77   0.0000       0.447098        12.1662 
  78   0.0000       0.490061        13.3352 
  79   0.0000       0.490061        13.3352 
  80   0.0000       0.546276        14.8649 
  81   0.0000       0.546676        14.8758 
  82   0.0000       0.549919        14.9641 
  83   0.0000       0.549919        14.9641 
  84   0.0000       0.575614        15.6632 
  85   0.0000       0.592508        16.1230 
  86   0.0000       0.592508        16.1230 
  87   0.0000       0.651765        17.7354 
  88   0.0000       0.652176        17.7466 
  89   0.0000       0.671912        18.2837 
  90   0.0000       0.806618        21.9492 
  91   0.0000       0.812800        22.1174 
  92   0.0000       0.812800        22.1174 
  93   0.0000       0.897189        24.4137 
  94   0.0000       0.897189        24.4137 
  95   0.0000       0.948467        25.8091 
  96   0.0000       0.995278        27.0829 
  97   0.0000       0.995868        27.0990 
  98   0.0000       1.046363        28.4730 
  99   0.0000       1.046363        28.4730 
 100   0.0000       1.068853        29.0850 
 101   0.0000       1.293033        35.1852 
 102   0.0000       1.293593        35.2005 
 103   0.0000       1.377780        37.4913 
 104   0.0000       1.417413        38.5698 
 105   0.0000       1.417413        38.5698 
 106   0.0000       1.589293        43.2469 
 107   0.0000       1.589293        43.2469 
 108   0.0000       1.602090        43.5951 
 109   0.0000       1.680326        45.7240 
 110   0.0000       1.773491        48.2591 
 111   0.0000       1.778457        48.3943 
 112   0.0000       1.783390        48.5285 
 113   0.0000       1.783390        48.5285 
 114   0.0000       1.785509        48.5862 
 115   0.0000       1.786376        48.6098 
 116   0.0000       1.890448        51.4417 
 117   0.0000       1.904463        51.8231 
 118   0.0000       1.905596        51.8539 
 119   0.0000       1.915456        52.1222 
 120   0.0000       1.915456        52.1222 
 121   0.0000       1.995380        54.2970 
 122   0.0000       1.995380        54.2970 
 123   0.0000       1.997637        54.3585 
 124   0.0000       2.020967        54.9933 
 125   0.0000       2.020967        54.9933 
 126   0.0000       2.034463        55.3606 
 127   0.0000       2.034727        55.3677 
 128   0.0000       2.111540        57.4579 
 129   0.0000       2.111540        57.4579 
 130   0.0000       2.159712        58.7687 
 131   0.0000       2.159712        58.7687 
 132   0.0000       2.222990        60.4906 
 133   0.0000       2.222990        60.4906 
 134   0.0000       2.231453        60.7209 
 135   0.0000       2.259530        61.4849 
 136   0.0000       2.266908        61.6857 
 137   0.0000       2.392164        65.0941 
 138   0.0000       2.501885        68.0797 
 139   0.0000       2.636104        71.7320 
 140   0.0000       2.636104        71.7320 
 141   0.0000       3.472500        94.4915 
 142   0.0000       5.358685       145.8172 

                    ********************************
                    * MULLIKEN POPULATION ANALYSIS *
                    ********************************

--------------------------------------------
MULLIKEN ATOMIC CHARGES AND SPIN POPULATIONS
--------------------------------------------
   0 Sc:    0.304700    1.020557
   1 S :   -0.304700   -0.020557
Sum of atomic charges         :   -0.0000000
Sum of atomic spin populations:    1.0000000

-----------------------------------------------------
MULLIKEN REDUCED ORBITAL CHARGES AND SPIN POPULATIONS
-----------------------------------------------------
CHARGE
  0 Scs       :     6.898847  s :     6.898847
      pz      :     4.153795  p :    12.283372
      px      :     4.064788
      py      :     4.064788
      dz2     :     0.617697  d :     1.461794
      dxz     :     0.422048
      dyz     :     0.422048
      dx2y2   :     0.000000
      dxy     :     0.000000
      f0      :     0.005226  f :     0.038981
      f+1     :     0.016877
      f-1     :     0.016877
      f+2     :     0.000000
      f-2     :     0.000000
      f+3     :     0.000000
      f-3     :     0.000000
      g0      :     0.000621  g :     0.012307
      g+1     :     0.005843
      g-1     :     0.005843
      g+2     :     0.000000
      g-2     :     0.000000
      g+3     :     0.000000
      g-3     :     0.000000
      g+4     :     0.000000
      g-4     :     0.000000
  1 S s       :     5.939111  s :     5.939111
      pz      :     3.377944  p :    10.338364
      px      :     3.480210
      py      :     3.480210
      dz2     :     0.004280  d :     0.022039
      dxz     :     0.008880
      dyz     :     0.008880
      dx2y2   :    -0.000000
      dxy     :     0.000000
      f0      :     0.002479  f :     0.005186
      f+1     :     0.001354
      f-1     :     0.001354
      f+2     :    -0.000000
      f-2     :     0.000000
      f+3     :     0.000000
      f-3     :     0.000000

SPIN
  0 Scs       :     0.623363  s :     0.623363
      pz      :     0.106646  p :     0.112871
      px      :     0.003113
      py      :     0.003113
      dz2     :     0.245977  d :     0.288876
      dxz     :     0.021450
      dyz     :     0.021450
      dx2y2   :     0.000000
      dxy     :     0.000000
      f0      :    -0.000132  f :    -0.003802
      f+1     :    -0.001835
      f-1     :    -0.001835
      f+2     :     0.000000
      f-2     :    -0.000000
      f+3     :     0.000000
      f-3     :     0.000000
      g0      :     0.000040  g :    -0.000751
      g+1     :    -0.000396
      g-1     :    -0.000396
      g+2     :     0.000000
      g-2     :     0.000000
      g+3     :    -0.000000
      g-3     :    -0.000000
      g+4     :     0.000000
      g-4     :     0.000000
  1 S s       :     0.056986  s :     0.056986
      pz      :    -0.033349  p :    -0.078502
      px      :    -0.022577
      py      :    -0.022577
      dz2     :    -0.000549  d :     0.000046
      dxz     :     0.000298
      dyz     :     0.000298
      dx2y2   :    -0.000000
      dxy     :    -0.000000
      f0      :     0.001018  f :     0.000913
      f+1     :    -0.000053
      f-1     :    -0.000053
      f+2     :    -0.000000
      f-2     :    -0.000000
      f+3     :    -0.000000
      f-3     :    -0.000000


                     *******************************
                     * LOEWDIN POPULATION ANALYSIS *
                     *******************************

-------------------------------------------
LOEWDIN ATOMIC CHARGES AND SPIN POPULATIONS
-------------------------------------------
   0 Sc:    0.083350    0.940414
   1 S :   -0.083350    0.059586

----------------------------------------------------
LOEWDIN REDUCED ORBITAL CHARGES AND SPIN POPULATIONS
----------------------------------------------------
CHARGE
  0 Scs       :     6.566196  s :     6.566196
      pz      :     4.226036  p :    12.195505
      px      :     3.984734
      py      :     3.984734
      dz2     :     0.774744  d :     1.697767
      dxz     :     0.461512
      dyz     :     0.461512
      dx2y2   :     0.000000
      dxy     :     0.000000
      f0      :     0.119948  f :     0.280326
      f+1     :     0.080189
      f-1     :     0.080189
      f+2     :     0.000000
      f-2     :     0.000000
      f+3     :     0.000000
      f-3     :     0.000000
      g0      :     0.066785  g :     0.176856
      g+1     :     0.055035
      g-1     :     0.055035
      g+2     :     0.000000
      g-2     :     0.000000
      g+3     :     0.000000
      g-3     :     0.000000
      g+4     :     0.000000
      g-4     :     0.000000
  1 S s       :     5.429509  s :     5.429509
      pz      :     3.523882  p :    10.154831
      px      :     3.315475
      py      :     3.315475
      dz2     :     0.187919  d :     0.307705
      dxz     :     0.059893
      dyz     :     0.059893
      dx2y2   :     0.000000
      dxy     :     0.000000
      f0      :     0.104980  f :     0.191306
      f+1     :     0.043163
      f-1     :     0.043163
      f+2     :     0.000000
      f-2     :     0.000000
      f+3     :     0.000000
      f-3     :     0.000000

SPIN
  0 Scs       :     0.607079  s :     0.607079
      pz      :     0.084328  p :     0.085141
      px      :     0.000406
      py      :     0.000406
      dz2     :     0.226671  d :     0.257678
      dxz     :     0.015504
      dyz     :     0.015504
      dx2y2   :     0.000000
      dxy     :     0.000000
      f0      :     0.000535  f :    -0.006747
      f+1     :    -0.003641
      f-1     :    -0.003641
      f+2     :     0.000000
      f-2     :     0.000000
      f+3     :     0.000000
      f-3     :     0.000000
      g0      :    -0.000382  g :    -0.002737
      g+1     :    -0.001178
      g-1     :    -0.001178
      g+2     :     0.000000
      g-2     :     0.000000
      g+3     :    -0.000000
      g-3     :    -0.000000
      g+4     :     0.000000
      g-4     :     0.000000
  1 S s       :     0.030900  s :     0.030900
      pz      :     0.042233  p :     0.016032
      px      :    -0.013101
      py      :    -0.013101
      dz2     :     0.007145  d :     0.010267
      dxz     :     0.001561
      dyz     :     0.001561
      dx2y2   :     0.000000
      dxy     :    -0.000000
      f0      :     0.001490  f :     0.002388
      f+1     :     0.000449
      f-1     :     0.000449
      f+2     :     0.000000
      f-2     :     0.000000
      f+3     :    -0.000000
      f-3     :    -0.000000


                      *****************************
                      * MAYER POPULATION ANALYSIS *
                      *****************************

  NA   - Mulliken gross atomic population
  ZA   - Total nuclear charge
  QA   - Mulliken gross atomic charge
  VA   - Mayer's total valence
  BVA  - Mayer's bonded valence
  FA   - Mayer's free valence

  ATOM       NA         ZA         QA         VA         BVA        FA
  0 Sc    20.6953    21.0000     0.3047     3.4567     2.5735     0.8833
  1 S     16.3047    16.0000    -0.3047     2.5811     2.5735     0.0076

  Mayer bond orders larger than 0.100000
B(  0-Sc,  1-S ) :   2.5735 

-------
TIMINGS
-------

Total SCF time: 0 days 0 hours 0 min 1 sec 

Total time                  ....       1.694 sec
Sum of individual times     ....       1.525 sec  ( 90.0%)

Fock matrix formation       ....       1.318 sec  ( 77.8%)
  Split-RI-J                ....       0.940 sec  ( 71.4% of F)
  XC integration            ....       0.160 sec  ( 12.1% of F)
    Basis function eval.    ....       0.019 sec  ( 12.1% of XC)
    Density eval.           ....       0.026 sec  ( 16.0% of XC)
    XC-Functional eval.     ....       0.005 sec  (  3.1% of XC)
    XC-Potential eval.      ....       0.070 sec  ( 43.8% of XC)
Diagonalization             ....       0.037 sec  (  2.2%)
Density matrix formation    ....       0.006 sec  (  0.3%)
Population analysis         ....       0.007 sec  (  0.4%)
Initial guess               ....       0.015 sec  (  0.9%)
Orbital Transformation      ....       0.000 sec  (  0.0%)
Orbital Orthonormalization  ....       0.009 sec  (  0.5%)
DIIS solution               ....       0.009 sec  (  0.5%)
Grid generation             ....       0.134 sec  (  7.9%)


-------------------------------------------------------------------------------
                          DFT DISPERSION CORRECTION                            
                                                                               
                              DFTD3 V3.1  Rev 1                                
                          USING Becke-Johnson damping                          
-------------------------------------------------------------------------------
The TPSS functional is recognized
Active option DFTDOPT                   ...         4   

molecular C6(AA) [au] = 1166.728510 


            DFT-D V3
 parameters
 s6 scaling factor         :     1.0000 
 a1 scaling factor         :     0.4535 
 s8 scaling factor         :     1.9435 
 a2 scaling factor         :     4.4752 
 ad hoc parameters k1-k3   :    16.0000     1.3333    -4.0000 

 Edisp/kcal,au: -1.254625509261  -0.001999372802 
 E6   /kcal   :  -0.397465671 
 E8   /kcal   :  -0.857159838 
 % E8         :  68.319975308 

-------------------------   ----------------
Dispersion correction           -0.001999373
-------------------------   ----------------


-------------------------   --------------------
FINAL SINGLE POINT ENERGY     -1158.986471066694
-------------------------   --------------------

                                *** OPTIMIZATION RUN DONE ***

                            ***************************************
                            *     ORCA property calculations      *
                            ***************************************

                                    ---------------------
                                    Active property flags
                                    ---------------------
   (+) Dipole Moment


------------------------------------------------------------------------------
                       ORCA ELECTRIC PROPERTIES CALCULATION
------------------------------------------------------------------------------

Dipole Moment Calculation                       ... on
Quadrupole Moment Calculation                   ... off
Polarizability Calculation                      ... off
GBWName                                         ... 06_ScS.gbw
Electron density file                           ... 06_ScS.scfp
The origin for moment calculation is the CENTER OF MASS  = ( 0.000000,  0.000000  1.550810)

-------------
DIPOLE MOMENT
-------------
                                X             Y             Z
Electronic contribution:      0.00000      -0.00000      -4.43406
Nuclear contribution   :      0.00000       0.00000       2.42233
                        -----------------------------------------
Total Dipole Moment    :      0.00000      -0.00000      -2.01173
                        -----------------------------------------
Magnitude (a.u.)       :      2.01173
Magnitude (Debye)      :      5.11342



--------------------
Rotational spectrum 
--------------------
 
Rotational constants in cm-1:     0.000000     0.196398     0.196398 
Rotational constants in MHz :     0.000000  5887.862686  5887.862686 

 Dipole components along the rotational axes: 
x,y,z [a.u.] :    -2.011732    -0.000000     0.000000 
x,y,z [Debye]:    -5.113417    -0.000000     0.000000 

 

Timings for individual modules:

Sum of individual times         ...       61.545 sec (=   1.026 min)
GTO integral calculation        ...       18.133 sec (=   0.302 min)  29.5 %
SCF iterations                  ...       18.582 sec (=   0.310 min)  30.2 %
SCF Gradient evaluation         ...       24.659 sec (=   0.411 min)  40.1 %
Geometry relaxation             ...        0.172 sec (=   0.003 min)   0.3 %
                             ****ORCA TERMINATED NORMALLY****
TOTAL RUN TIME: 0 days 0 hours 1 minutes 2 seconds 421 msec
