
                                 *****************
                                 * O   R   C   A *
                                 *****************

           --- An Ab Initio, DFT and Semiempirical electronic structure package ---

                  #######################################################
                  #                        -***-                        #
                  #          Department of theory and spectroscopy      #
                  #               Directorship: Frank Neese             #
                  #        Max Planck Institute fuer Kohlenforschung    #
                  #                Kaiser Wilhelm Platz 1               #
                  #                 D-45470 Muelheim/Ruhr               #
                  #                      Germany                        #
                  #                                                     #
                  #                  All rights reserved                #
                  #                        -***-                        #
                  #######################################################


                         Program Version 4.2.0 -  RELEASE  -


 With contributions from (in alphabetic order):
   Daniel Aravena         : Magnetic Suceptibility
   Michael Atanasov       : Ab Initio Ligand Field Theory (pilot matlab implementation)
   Alexander A. Auer      : GIAO ZORA, VPT2
   Ute Becker             : Parallelization
   Giovanni Bistoni       : ED, misc. LED, open-shell LED, HFLED
   Martin Brehm           : Molecular dynamics
   Dmytro Bykov           : SCF Hessian
   Vijay G. Chilkuri      : MRCI spin determinant printing, contributions to CSF-ICE
   Dipayan Datta          : RHF DLPNO-CCSD density
   Achintya Kumar Dutta   : EOM-CC, STEOM-CC
   Dmitry Ganyushin       : Spin-Orbit,Spin-Spin,Magnetic field MRCI
   Miquel Garcia          : C-PCM Hessian, Gaussian charge scheme
   Yang Guo               : DLPNO-NEVPT2, CIM, IAO-localization
   Andreas Hansen         : Spin unrestricted coupled pair/coupled cluster methods
   Benjamin Helmich-Paris : CASSCF linear response (MC-RPA)
   Lee Huntington         : MR-EOM, pCC
   Robert Izsak           : Overlap fitted RIJCOSX, COSX-SCS-MP3, EOM
   Christian Kollmar      : KDIIS, OOCD, Brueckner-CCSD(T), CCSD density
   Simone Kossmann        : Meta GGA functionals, TD-DFT gradient, OOMP2, MP2 Hessian
   Martin Krupicka        : AUTO-CI
   Lucas Lang             : DCDCAS
   Dagmar Lenk            : GEPOL surface, SMD
   Dimitrios Liakos       : Extrapolation schemes; Compound Job, initial MDCI parallelization
   Dimitrios Manganas     : Further ROCIS development; embedding schemes
   Dimitrios Pantazis     : SARC Basis sets
   Taras Petrenko         : DFT Hessian,TD-DFT gradient, ASA, ECA, R-Raman, ABS, FL, XAS/XES, NRVS
   Peter Pinski           : DLPNO-MP2, DLPNO-MP2 Gradient
   Christoph Reimann      : Effective Core Potentials
   Marius Retegan         : Local ZFS, SOC
   Christoph Riplinger    : Optimizer, TS searches, QM/MM, DLPNO-CCSD(T), (RO)-DLPNO pert. Triples
   Tobias Risthaus        : Range-separated hybrids, TD-DFT gradient, RPA, STAB
   Michael Roemelt        : Original ROCIS implementation
   Masaaki Saitow         : Open-shell DLPNO-CCSD energy and density
   Barbara Sandhoefer     : DKH picture change effects
   Avijit Sen             : IP-ROCIS
   Kantharuban Sivalingam : CASSCF convergence, NEVPT2, FIC-MRCI
   Bernardo de Souza      : ESD, SOC TD-DFT
   Georgi Stoychev        : AutoAux, RI-MP2 NMR
   Willem Van den Heuvel  : Paramagnetic NMR
   Boris Wezisla          : Elementary symmetry handling
   Frank Wennmohs         : Technical directorship


 We gratefully acknowledge several colleagues who have allowed us to
 interface, adapt or use parts of their codes:
   Stefan Grimme, W. Hujo, H. Kruse,             : VdW corrections, initial TS optimization,
                  C. Bannwarth                     DFT functionals, gCP, sTDA/sTD-DF
   Ed Valeev, F. Pavosevic, A. Kumar             : LibInt (2-el integral package), F12 methods
   Garnet Chan, S. Sharma, J. Yang, R. Olivares  : DMRG
   Ulf Ekstrom                                   : XCFun DFT Library
   Mihaly Kallay                                 : mrcc  (arbitrary order and MRCC methods)
   Andreas Klamt, Michael Diedenhofen            : otool_cosmo (COSMO solvation model)
   Jiri Pittner, Ondrej Demel                    : Mk-CCSD
   Frank Weinhold                                : gennbo (NPA and NBO analysis)
   Christopher J. Cramer and Donald G. Truhlar   : smd solvation model
   Lars Goerigk                                  : TD-DFT with DH, B97 family of functionals
   V. Asgeirsson, H. Jonsson                     : NEB implementation
   FAccTs GmbH                                   : IRC, NEB, NEB-TS, Multilevel, MM, QM/MM, CI optimization
   S Lehtola, MJT Oliveira, MAL Marques          : LibXC Library


 Your calculation uses the libint2 library for the computation of 2-el integrals
 For citations please refer to: http://libint.valeyev.net

 Your ORCA version has been built with support for libXC version: 4.2.3
 For citations please refer to: https://tddft.org/programs/libxc/

 This ORCA versions uses:
   CBLAS   interface :  Fast vector & matrix operations
   LAPACKE interface :  Fast linear algebra routines
   SCALAPACK package :  Parallel linear algebra routines


Your calculation utilizes the atom-pairwise dispersion correction
with the Becke-Johnson damping scheme (D3BJ)
Cite in your paper:
S.Grimme, S.Ehrlich, L.Goerigk, J Comput Chem, (2011), 32, 1456–1465 
S.Grimme, J.Antony, S.Ehrlich and H.Krieg, J.Chem.Phys., 132, (2010), 154104 
   

----- Orbital basis set information -----
Your calculation utilizes the basis: aug-cc-pVTZ 
    H, B-Ne : Obtained from the ccRepo (grant-hill.group.shef.ac.uk/ccrepo) Feb. 2017
              R. A. Kendall, T. H. Dunning, Jr., R. J. Harrison, J. Chem. Phys. 96, 6796 (1992)
         He : Obtained from the ccRepo (grant-hill.group.shef.ac.uk/ccrepo) Feb. 2017
              D. E. Woon, T. H. Dunning, Jr., J. Chem. Phys. 100, 2975 (1994)
  Li-Be, Na : Obtained from the ccRepo (grant-hill.group.shef.ac.uk/ccrepo) Feb. 2017
              B. P. Prascher, D. E. Woon, K. A. Peterson, T. H. Dunning, Jr., A. K. Wilson, Theor. Chem. Acc. 128, 69 (2011)
         Mg : Obtained from the Peterson Research Group Website (tyr0.chem.wsu.edu/~kipeters) Feb. 2017
              B. P. Prascher, D. E. Woon, K. A. Peterson, T. H. Dunning, Jr., A. K. Wilson, Theor. Chem. Acc. 128, 69 (2011)
      Al-Ar : Obtained from the ccRepo (grant-hill.group.shef.ac.uk/ccrepo) Feb. 2017
              D. E. Woon, T. H. Dunning, Jr., J. Chem. Phys. 98, 1358 (1993)
      Sc-Zn : Obtained from the ccRepo (grant-hill.group.shef.ac.uk/ccrepo) Feb. 2017
              N. B. Balabanov, K. A. Peterson, J. Chem. Phys. 123, 064107 (2005)
              N. B. Balabanov, K. A. Peterson, J. Chem. Phys. 125, 074110 (2006)
      Ga-Kr : Obtained from the ccRepo (grant-hill.group.shef.ac.uk/ccrepo) Feb. 2017
              A. K. Wilson, D. E. Woon, K. A. Peterson, T. H. Dunning, Jr., J. Chem. Phys. 110, 7667 (1999)
     Ag, Au : Obtained from the Peterson Research Group Website (tyr0.chem.wsu.edu/~kipeters) Feb. 2017
              K. A. Peterson, C. Puzzarini, Theor. Chem. Acc. 114, 283 (2005)

----- AuxJ basis set information -----
Your calculation utilizes the auxiliary basis: def2/J
   F. Weigend, Phys. Chem. Chem. Phys. 8, 1057 (2006).

================================================================================
                                        WARNINGS
                       Please study these warnings very carefully!
================================================================================


WARNING: your system is open-shell and RHF/RKS was chosen
  ===> : WILL SWITCH to UHF/UKS


WARNING: Geometry Optimization
  ===> : Switching off AutoStart
         For restart on a previous wavefunction, please use MOREAD

INFO   : the flag for use of LIBINT has been found!

================================================================================
                                       INPUT FILE
================================================================================
NAME = 08_TiF.in
|  1> #
|  2> # 08_TiF tpss/aug-cc-pvtz
|  3> #
|  4> ! tpss d3bj aug-cc-pvtz def2/j opt xyzfile
|  5> 
|  6> *xyz 0 4
|  7> Ti 0.0 0.0 0.0
|  8> F 0.0 0.0 2.0
|  9> *
| 10> 
| 11> %pal
| 12> nprocs 24
| 13> end
| 14> 
| 15> 
| 16>                          ****END OF INPUT****
================================================================================

                       *****************************
                       * Geometry Optimization Run *
                       *****************************

Geometry optimization settings:
Update method            Update   .... BFGS
Choice of coordinates    CoordSys .... Z-matrix Internals
Initial Hessian          InHess   .... Almoef's Model

Convergence Tolerances:
Energy Change            TolE     ....  5.0000e-06 Eh
Max. Gradient            TolMAXG  ....  3.0000e-04 Eh/bohr
RMS Gradient             TolRMSG  ....  1.0000e-04 Eh/bohr
Max. Displacement        TolMAXD  ....  4.0000e-03 bohr
RMS Displacement         TolRMSD  ....  2.0000e-03 bohr
Strict Convergence                ....  False
------------------------------------------------------------------------------
                        ORCA OPTIMIZATION COORDINATE SETUP
------------------------------------------------------------------------------

The optimization will be done in new redundant internal coordinates
Making redundant internal coordinates   ...  (new redundants) done
Evaluating the initial hessian          ...  (Almloef) done
Evaluating the coordinates              ...  done
Calculating the B-matrix                .... done
Calculating the G-matrix                .... done
Diagonalizing the G-matrix              .... done
The first mode is                       ....    0
The number of degrees of freedom        ....    1

    -----------------------------------------------------------------
                    Redundant Internal Coordinates


    -----------------------------------------------------------------
         Definition                    Initial Value    Approx d2E/dq
    -----------------------------------------------------------------
      1. B(F   1,Ti  0)                  2.0000         0.559597   
    -----------------------------------------------------------------

Number of atoms                         .... 2
Number of degrees of freedom            .... 1

         *************************************************************
         *                GEOMETRY OPTIMIZATION CYCLE   1            *
         *************************************************************
---------------------------------
CARTESIAN COORDINATES (ANGSTROEM)
---------------------------------
  Ti     0.000000    0.000000    0.000000
  F      0.000000    0.000000    2.000000

----------------------------
CARTESIAN COORDINATES (A.U.)
----------------------------
  NO LB      ZA    FRAG     MASS         X           Y           Z
   0 Ti   22.0000    0    47.900    0.000000    0.000000    0.000000
   1 F     9.0000    0    18.998    0.000000    0.000000    3.779452

--------------------------------
INTERNAL COORDINATES (ANGSTROEM)
--------------------------------
 Ti     0   0   0     0.000000000000     0.00000000     0.00000000
 F      1   0   0     2.000000000000     0.00000000     0.00000000

---------------------------
INTERNAL COORDINATES (A.U.)
---------------------------
 Ti     0   0   0     0.000000000000     0.00000000     0.00000000
 F      1   0   0     3.779452267843     0.00000000     0.00000000

---------------------
BASIS SET INFORMATION
---------------------
There are 2 groups of distinct atoms

 Group   1 Type Ti  : 116s77p23d3f2g contracted to 8s7p5d3f2g pattern {19191919191911/151515151511/77711/111/11}
 Group   2 Type F   : 19s6p3d2f contracted to 5s4p3d2f pattern {88111/3111/111/11}

Atom   0Ti   basis set group =>   1
Atom   1F    basis set group =>   2
---------------------------------
AUXILIARY/J BASIS SET INFORMATION
---------------------------------
There are 2 groups of distinct atoms

 Group   1 Type Ti  : 19s5p5d3f3g contracted to 8s5p5d2f3g pattern {121111111/11111/11111/21/111}
 Group   2 Type F   : 12s5p4d2f1g contracted to 6s4p3d1f1g pattern {711111/2111/211/2/1}

Atom   0Ti   basis set group =>   1
Atom   1F    basis set group =>   2


           ************************************************************
           *        Program running with 24 parallel MPI-processes    *
           *              working on a common directory               *
           ************************************************************
------------------------------------------------------------------------------
                           ORCA GTO INTEGRAL CALCULATION
                           -- RI-GTO INTEGRALS CHOSEN --
------------------------------------------------------------------------------

                         BASIS SET STATISTICS AND STARTUP INFO

Gaussian basis set:
 # of primitive gaussian shells          ...  251
 # of primitive gaussian functions       ...  567
 # of contracted shells                  ...   39
 # of contracted basis functions         ...  139
 Highest angular momentum                ...    4
 Maximum contraction depth               ...   19
Auxiliary gaussian basis set:
 # of primitive gaussian shells          ...   59
 # of primitive gaussian functions       ...  177
 # of contracted shells                  ...   38
 # of contracted aux-basis functions     ...  138
 Highest angular momentum                ...    4
 Maximum contraction depth               ...   12
Ratio of auxiliary to basis functions    ...  0.99
Integral package used                  ... LIBINT
 One Electron integrals                  ... done
 Ordering auxiliary basis shells         ... done
 Integral threshhold             Thresh  ...  2.500e-11
 Primitive cut-off               TCut    ...  2.500e-12
 Pre-screening matrix                    ... done
 Shell pair data                         ... 
 Ordering of the shell pairs             ... done (   0.000 sec) 780 of 780 pairs
 Determination of significant pairs      ... done (   0.000 sec)
 Creation of shell pair data             ... done (   0.001 sec)
 Storage of shell pair data              ... done (   0.039 sec)
 Shell pair data done in (   0.040 sec)
 Computing two index integrals           ... done
 Cholesky decomposition of the V-matrix  ... done


Timings:
 Total evaluation time                   ...   2.203 sec (  0.037 min)
 One electron matrix time                ...   0.040 sec (  0.001 min) =  1.8%
 Schwartz matrix evaluation time         ...   2.086 sec (  0.035 min) = 94.7%
 Two index repulsion integral time       ...   0.001 sec (  0.000 min) =  0.0%
 Cholesky decomposition of V             ...   0.001 sec (  0.000 min) =  0.0%
 Three index repulsion integral time     ...   0.000 sec (  0.000 min) =  0.0%



           ************************************************************
           *        Program running with 24 parallel MPI-processes    *
           *              working on a common directory               *
           ************************************************************
-------------------------------------------------------------------------------
                                 ORCA SCF
-------------------------------------------------------------------------------

------------
SCF SETTINGS
------------
Hamiltonian:
 Density Functional     Method          .... DFT(GTOs)
 Exchange Functional    Exchange        .... TPSS
 Correlation Functional Correlation     .... TPSS
 LDA part of GGA corr.  LDAOpt          .... PW91-LDA
 Gradients option       PostSCFGGA      .... off
   Density functional embedding theory  .... OFF
   NL short-range parameter             ....  5.000000
 RI-approximation to the Coulomb term is turned on
   Number of auxiliary basis functions  .... 138


General Settings:
 Integral files         IntName         .... 08_TiF
 Hartree-Fock type      HFTyp           .... UHF
 Total Charge           Charge          ....    0
 Multiplicity           Mult            ....    4
 Number of Electrons    NEL             ....   31
 Basis Dimension        Dim             ....  139
 Nuclear Repulsion      ENuc            ....     52.3885436217 Eh

Convergence Acceleration:
 DIIS                   CNVDIIS         .... on
   Start iteration      DIISMaxIt       ....    12
   Startup error        DIISStart       ....  0.200000
   # of expansion vecs  DIISMaxEq       ....     5
   Bias factor          DIISBfac        ....   1.050
   Max. coefficient     DIISMaxC        ....  10.000
 Newton-Raphson         CNVNR           .... off
 SOSCF                  CNVSOSCF        .... off
 Level Shifting         CNVShift        .... on
   Level shift para.    LevelShift      ....    0.2500
   Turn off err/grad.   ShiftErr        ....    0.0010
 Zerner damping         CNVZerner       .... off
 Static damping         CNVDamp         .... on
   Fraction old density DampFac         ....    0.7000
   Max. Damping (<1)    DampMax         ....    0.9800
   Min. Damping (>=0)   DampMin         ....    0.0000
   Turn off err/grad.   DampErr         ....    0.1000
 Fernandez-Rico         CNVRico         .... off

SCF Procedure:
 Maximum # iterations   MaxIter         ....   125
 SCF integral mode      SCFMode         .... Direct
   Integral package                     .... LIBINT
 Reset frequency        DirectResetFreq ....    20
 Integral Threshold     Thresh          ....  2.500e-11 Eh
 Primitive CutOff       TCut            ....  2.500e-12 Eh

Convergence Tolerance:
 Convergence Check Mode ConvCheckMode   .... Total+1el-Energy
 Convergence forced     ConvForced      .... 0
 Energy Change          TolE            ....  1.000e-08 Eh
 1-El. energy change                    ....  1.000e-05 Eh
 DIIS Error             TolErr          ....  5.000e-07


Diagonalization of the overlap matrix:
Smallest eigenvalue                        ... 6.091e-05
Time for diagonalization                   ...    0.005 sec
Threshold for overlap eigenvalues          ... 1.000e-08
Number of eigenvalues below threshold      ... 0
Time for construction of square roots      ...    0.002 sec
Total time needed                          ...    0.007 sec

-------------------
DFT GRID GENERATION
-------------------

General Integration Accuracy     IntAcc      ...  4.340
Radial Grid Type                 RadialGrid  ... Gauss-Chebyshev
Angular Grid (max. acc.)         AngularGrid ... Lebedev-110
Angular grid pruning method      GridPruning ... 3 (G Style)
Weight generation scheme         WeightScheme... Becke
Basis function cutoff            BFCut       ...    1.0000e-11
Integration weight cutoff        WCut        ...    1.0000e-14
Grids for H and He will be reduced by one unit

# of grid points (after initial pruning)     ...   4712 (   0.0 sec)
# of grid points (after weights+screening)   ...   4689 (   0.0 sec)
nearest neighbour list constructed           ...    0.0 sec
Grid point re-assignment to atoms done       ...    0.0 sec
Grid point division into batches done        ...    0.0 sec
Reduced shell lists constructed in    0.0 sec

Total number of grid points                  ...     4689
Total number of batches                      ...       74
Average number of points per batch           ...       63
Average number of grid points per atom       ...     2344
Average number of shells per batch           ...    22.40 (57.44%)
Average number of basis functions per batch  ...    72.00 (51.80%)
Average number of large shells per batch     ...    17.60 (78.57%)
Average number of large basis fcns per batch ...    60.80 (84.44%)
Maximum spatial batch extension              ...  18.98, 28.73, 16.15 au
Average spatial batch extension              ...   0.94,  1.30,  0.87 au

Time for grid setup =    0.033 sec

------------------------------
INITIAL GUESS: MODEL POTENTIAL
------------------------------
Loading Hartree-Fock densities                     ... done
Calculating cut-offs                               ... done
Setting up the integral package                    ... done
Initializing the effective Hamiltonian             ... done
Starting the Coulomb interaction                   ... done (   0.0 sec)
Reading the grid                                   ... done
Mapping shells                                     ... done
Starting the XC term evaluation                    ... done (   0.0 sec)
  promolecular density results
     # of electrons  =     31.000611192
     EX              =    -50.775865154
     EC              =     -1.193455703
     EX+EC           =    -51.969320858
Transforming the Hamiltonian                       ... done (   0.0 sec)
Diagonalizing the Hamiltonian                      ... done (   0.0 sec)
Back transforming the eigenvectors                 ... done (   0.0 sec)
Now organizing SCF variables                       ... done
                      ------------------
                      INITIAL GUESS DONE (   0.1 sec)
                      ------------------
--------------
SCF ITERATIONS
--------------
ITER       Energy         Delta-E        Max-DP      RMS-DP      [F,P]     Damp
               ***  Starting incremental Fock matrix formation  ***
  0   -949.2836872861   0.000000000000 0.09144959  0.00189135  0.2926860 0.7000
  1   -949.3270628808  -0.043375594690 0.05718898  0.00113761  0.0461073 0.7000
                               ***Turning on DIIS***
  2   -949.3364915209  -0.009428640118 0.07074465  0.00156383  0.0392991 0.0000
  3   -949.3636213174  -0.027129796496 0.10115446  0.00216748  0.0449970 0.0000
  4   -949.3675810794  -0.003959762051 0.03848116  0.00084612  0.0289121 0.0000
  5   -949.3681963356  -0.000615256124 0.01360138  0.00018252  0.0053485 0.0000
  6   -949.3683321461  -0.000135810526 0.01042999  0.00010286  0.0018397 0.0000
  7   -949.3683559848  -0.000023838740 0.01699547  0.00016309  0.0007534 0.0000
  8   -949.3683731320  -0.000017147159 0.00478426  0.00005942  0.0018157 0.0000
  9   -949.3683795052  -0.000006373244 0.00757102  0.00008038  0.0008765 0.0000
 10   -949.3683829839  -0.000003478646 0.00393077  0.00004133  0.0002620 0.0000
 11   -949.3683832313  -0.000000247465 0.00142738  0.00001632  0.0001680 0.0000
 12   -949.3683834228  -0.000000191461 0.00025032  0.00000314  0.0000334 0.0000
 13   -949.3683834061   0.000000016693 0.00040045  0.00000460  0.0000411 0.0000
 14   -949.3683834664  -0.000000060281 0.00000873  0.00000010  0.0000027 0.0000
                            ***DIIS convergence achieved***

               *****************************************************
               *                     SUCCESS                       *
               *           SCF CONVERGED AFTER  15 CYCLES          *
               *****************************************************

Setting up the final grid:

General Integration Accuracy     IntAcc      ...  4.670
Radial Grid Type                 RadialGrid  ... Gauss-Chebyshev
Angular Grid (max. acc.)         AngularGrid ... Lebedev-302
Angular grid pruning method      GridPruning ... 3 (G Style)
Weight generation scheme         WeightScheme... Becke
Basis function cutoff            BFCut       ...    1.0000e-11
Integration weight cutoff        WCut        ...    1.0000e-14
Grids for H and He will be reduced by one unit

# of grid points (after initial pruning)     ...  15936 (   0.0 sec)
# of grid points (after weights+screening)   ...  15893 (   0.0 sec)
nearest neighbour list constructed           ...    0.0 sec
Grid point re-assignment to atoms done       ...    0.0 sec
Grid point division into batches done        ...    0.1 sec
Reduced shell lists constructed in    0.1 sec

Total number of grid points                  ...    15893
Total number of batches                      ...      249
Average number of points per batch           ...       63
Average number of grid points per atom       ...     7946
Average number of shells per batch           ...    21.08 (54.06%)
Average number of basis functions per batch  ...    62.08 (44.66%)
Average number of large shells per batch     ...    13.00 (61.66%)
Average number of large basis fcns per batch ...    37.17 (59.87%)
Maximum spatial batch extension              ...  28.57, 31.41, 16.79 au
Average spatial batch extension              ...   0.89,  0.95,  0.67 au

Final grid set up in    0.1 sec
Final integration                            ... done (   0.0 sec)
Change in XC energy                          ...    -0.001229383
Integrated number of electrons               ...    30.999986720
Previous integrated no of electrons          ...    30.999527711

----------------
TOTAL SCF ENERGY
----------------

Total Energy       :         -949.36961284 Eh          -25833.66052 eV

Components:
Nuclear Repulsion  :           52.38854362 Eh            1425.56475 eV
Electronic Energy  :        -1001.75815646 Eh          -27259.22527 eV
One Electron Energy:        -1409.46499287 Eh          -38353.49231 eV
Two Electron Energy:          407.70683641 Eh           11094.26704 eV

Virial components:
Potential Energy   :        -1896.72256451 Eh          -51612.44491 eV
Kinetic Energy     :          947.35295167 Eh           25778.78438 eV
Virial Ratio       :            2.00212873


DFT components:
N(Alpha)           :       16.999993429200 electrons
N(Beta)            :       13.999993290884 electrons
N(Total)           :       30.999986720085 electrons
E(X)               :      -51.409680976565 Eh       
E(C)               :       -1.197821480422 Eh       
E(XC)              :      -52.607502456987 Eh       
DFET-embed. en.    :        0.000000000000 Eh       

---------------
SCF CONVERGENCE
---------------

  Last Energy change         ...    1.1923e-08  Tolerance :   1.0000e-08
  Last MAX-Density change    ...    1.7688e-05  Tolerance :   1.0000e-07
  Last RMS-Density change    ...    1.9881e-07  Tolerance :   5.0000e-09
  Last DIIS Error            ...    5.3701e-07  Tolerance :   5.0000e-07

             **** THE GBW FILE WAS UPDATED (08_TiF.gbw) ****
             **** DENSITY FILE WAS UPDATED (08_TiF.scfp) ****
             **** ENERGY FILE WAS UPDATED (08_TiF.en.tmp) ****
----------------------
UHF SPIN CONTAMINATION
----------------------

Warning: in a DFT calculation there is little theoretical justification to 
         calculate <S**2> as in Hartree-Fock theory. We will do it anyways
         but you should keep in mind that the values have only limited relevance

Expectation value of <S**2>     :     3.756444
Ideal value S*(S+1) for S=1.5   :     3.750000
Deviation                       :     0.006444

             **** THE GBW FILE WAS UPDATED (08_TiF.gbw) ****
             **** DENSITY FILE WAS UPDATED (08_TiF.scfp) ****
----------------
ORBITAL ENERGIES
----------------
                 SPIN UP ORBITALS
  NO   OCC          E(Eh)            E(eV) 
   0   1.0000    -178.130347     -4847.1732 
   1   1.0000     -24.332603      -662.1238 
   2   1.0000     -19.528326      -531.3928 
   3   1.0000     -16.267113      -442.6506 
   4   1.0000     -16.253163      -442.2710 
   5   1.0000     -16.253163      -442.2710 
   6   1.0000      -2.255010       -61.3619 
   7   1.0000      -1.408876       -38.3375 
   8   1.0000      -1.389754       -37.8171 
   9   1.0000      -1.389754       -37.8171 
  10   1.0000      -0.992347       -27.0031 
  11   1.0000      -0.318849        -8.6763 
  12   1.0000      -0.292231        -7.9520 
  13   1.0000      -0.292231        -7.9520 
  14   1.0000      -0.162583        -4.4241 
  15   1.0000      -0.129178        -3.5151 
  16   1.0000      -0.129138        -3.5140 
  17   0.0000      -0.111617        -3.0373 
  18   0.0000      -0.111617        -3.0373 
  19   0.0000      -0.107116        -2.9148 
  20   0.0000      -0.041522        -1.1299 
  21   0.0000      -0.041522        -1.1299 
  22   0.0000      -0.005898        -0.1605 
  23   0.0000       0.001108         0.0301 
  24   0.0000       0.019184         0.5220 
  25   0.0000       0.019184         0.5220 
  26   0.0000       0.026861         0.7309 
  27   0.0000       0.026927         0.7327 
  28   0.0000       0.033312         0.9065 
  29   0.0000       0.033312         0.9065 
  30   0.0000       0.035852         0.9756 
  31   0.0000       0.046189         1.2569 
  32   0.0000       0.080246         2.1836 
  33   0.0000       0.116937         3.1820 
  34   0.0000       0.116937         3.1820 
  35   0.0000       0.120879         3.2893 
  36   0.0000       0.121013         3.2929 
  37   0.0000       0.126756         3.4492 
  38   0.0000       0.131166         3.5692 
  39   0.0000       0.131166         3.5692 
  40   0.0000       0.176070         4.7911 
  41   0.0000       0.207226         5.6389 
  42   0.0000       0.225083         6.1248 
  43   0.0000       0.225083         6.1248 
  44   0.0000       0.228605         6.2207 
  45   0.0000       0.228605         6.2207 
  46   0.0000       0.235506         6.4085 
  47   0.0000       0.235611         6.4113 
  48   0.0000       0.316124         8.6022 
  49   0.0000       0.316124         8.6022 
  50   0.0000       0.318953         8.6791 
  51   0.0000       0.360613         9.8128 
  52   0.0000       0.443644        12.0722 
  53   0.0000       0.489073        13.3083 
  54   0.0000       0.489631        13.3235 
  55   0.0000       0.495930        13.4949 
  56   0.0000       0.495930        13.4949 
  57   0.0000       0.510600        13.8941 
  58   0.0000       0.510600        13.8941 
  59   0.0000       0.562169        15.2974 
  60   0.0000       0.704706        19.1760 
  61   0.0000       0.764921        20.8146 
  62   0.0000       0.765206        20.8223 
  63   0.0000       0.853925        23.2365 
  64   0.0000       0.853925        23.2365 
  65   0.0000       0.862295        23.4642 
  66   0.0000       0.862295        23.4642 
  67   0.0000       0.863619        23.5003 
  68   0.0000       0.865691        23.5566 
  69   0.0000       0.877683        23.8830 
  70   0.0000       0.878228        23.8978 
  71   0.0000       0.888850        24.1868 
  72   0.0000       0.888850        24.1868 
  73   0.0000       0.907266        24.6880 
  74   0.0000       0.966796        26.3078 
  75   0.0000       0.970182        26.4000 
  76   0.0000       0.970182        26.4000 
  77   0.0000       0.995304        27.0836 
  78   0.0000       0.995304        27.0836 
  79   0.0000       1.093203        29.7476 
  80   0.0000       1.094638        29.7866 
  81   0.0000       1.259408        34.2702 
  82   0.0000       1.383271        37.6407 
  83   0.0000       1.524975        41.4967 
  84   0.0000       1.524975        41.4967 
  85   0.0000       1.835217        49.9388 
  86   0.0000       1.835357        49.9426 
  87   0.0000       1.835357        49.9426 
  88   0.0000       1.961239        53.3680 
  89   0.0000       2.036972        55.4288 
  90   0.0000       2.036972        55.4288 
  91   0.0000       2.042146        55.5696 
  92   0.0000       2.042578        55.5814 
  93   0.0000       2.176292        59.2199 
  94   0.0000       2.492631        67.8279 
  95   0.0000       2.594868        70.6100 
  96   0.0000       2.595434        70.6254 
  97   0.0000       2.601277        70.7843 
  98   0.0000       2.601277        70.7843 
  99   0.0000       2.686721        73.1094 
 100   0.0000       2.686721        73.1094 
 101   0.0000       2.790045        75.9210 
 102   0.0000       2.857640        77.7603 
 103   0.0000       2.860861        77.8480 
 104   0.0000       2.995144        81.5020 
 105   0.0000       2.995144        81.5020 
 106   0.0000       3.144827        85.5751 
 107   0.0000       3.193616        86.9027 
 108   0.0000       3.194037        86.9142 
 109   0.0000       3.201758        87.1243 
 110   0.0000       3.201758        87.1243 
 111   0.0000       3.248890        88.4068 
 112   0.0000       3.249238        88.4163 
 113   0.0000       3.378166        91.9246 
 114   0.0000       3.378166        91.9246 
 115   0.0000       3.411335        92.8272 
 116   0.0000       3.411408        92.8291 
 117   0.0000       3.487105        94.8890 
 118   0.0000       3.487105        94.8890 
 119   0.0000       3.721074       101.2556 
 120   0.0000       3.721074       101.2556 
 121   0.0000       3.817703       103.8850 
 122   0.0000       3.886217       105.7493 
 123   0.0000       4.892406       133.1291 
 124   0.0000       4.892406       133.1291 
 125   0.0000       5.273959       143.5117 
 126   0.0000       8.388666       228.2672 
 127   0.0000       8.388666       228.2672 
 128   0.0000       8.447590       229.8706 
 129   0.0000       8.479376       230.7355 
 130   0.0000       8.663859       235.7556 
 131   0.0000       8.673065       236.0061 
 132   0.0000       8.673065       236.0061 
 133   0.0000       8.777188       238.8394 
 134   0.0000       8.778410       238.8727 
 135   0.0000       8.901369       242.2186 
 136   0.0000       8.901369       242.2186 
 137   0.0000       8.969534       244.0734 
 138   0.0000      12.918113       351.5197 

                 SPIN DOWN ORBITALS
  NO   OCC          E(Eh)            E(eV) 
   0   1.0000    -178.129764     -4847.1573 
   1   1.0000     -24.334628      -662.1789 
   2   1.0000     -19.507168      -530.8170 
   3   1.0000     -16.258558      -442.4179 
   4   1.0000     -16.231846      -441.6910 
   5   1.0000     -16.231846      -441.6910 
   6   1.0000      -2.187157       -59.5156 
   7   1.0000      -1.372197       -37.3394 
   8   1.0000      -1.302263       -35.4364 
   9   1.0000      -1.302263       -35.4364 
  10   1.0000      -0.995942       -27.1010 
  11   1.0000      -0.318866        -8.6768 
  12   1.0000      -0.293722        -7.9926 
  13   1.0000      -0.293722        -7.9926 
  14   0.0000      -0.097018        -2.6400 
  15   0.0000      -0.069722        -1.8972 
  16   0.0000      -0.069722        -1.8972 
  17   0.0000      -0.062333        -1.6962 
  18   0.0000      -0.034841        -0.9481 
  19   0.0000      -0.034788        -0.9466 
  20   0.0000       0.002362         0.0643 
  21   0.0000       0.002362         0.0643 
  22   0.0000       0.013536         0.3683 
  23   0.0000       0.016951         0.4612 
  24   0.0000       0.038282         1.0417 
  25   0.0000       0.038282         1.0417 
  26   0.0000       0.047238         1.2854 
  27   0.0000       0.047296         1.2870 
  28   0.0000       0.047296         1.2870 
  29   0.0000       0.049492         1.3467 
  30   0.0000       0.049513         1.3473 
  31   0.0000       0.062146         1.6911 
  32   0.0000       0.108206         2.9444 
  33   0.0000       0.150926         4.1069 
  34   0.0000       0.151045         4.1102 
  35   0.0000       0.151045         4.1102 
  36   0.0000       0.163158         4.4398 
  37   0.0000       0.163158         4.4398 
  38   0.0000       0.165319         4.4986 
  39   0.0000       0.165411         4.5011 
  40   0.0000       0.202822         5.5191 
  41   0.0000       0.217161         5.9092 
  42   0.0000       0.233041         6.3414 
  43   0.0000       0.233041         6.3414 
  44   0.0000       0.267202         7.2709 
  45   0.0000       0.267637         7.2828 
  46   0.0000       0.276154         7.5145 
  47   0.0000       0.276154         7.5145 
  48   0.0000       0.343584         9.3494 
  49   0.0000       0.343584         9.3494 
  50   0.0000       0.346032         9.4160 
  51   0.0000       0.398184        10.8351 
  52   0.0000       0.459337        12.4992 
  53   0.0000       0.538836        14.6625 
  54   0.0000       0.538836        14.6625 
  55   0.0000       0.546397        14.8682 
  56   0.0000       0.546767        14.8783 
  57   0.0000       0.549986        14.9659 
  58   0.0000       0.549986        14.9659 
  59   0.0000       0.587299        15.9812 
  60   0.0000       0.721839        19.6422 
  61   0.0000       0.776790        21.1375 
  62   0.0000       0.777331        21.1522 
  63   0.0000       0.868845        23.6425 
  64   0.0000       0.868845        23.6425 
  65   0.0000       0.904922        24.6242 
  66   0.0000       0.904922        24.6242 
  67   0.0000       0.906289        24.6614 
  68   0.0000       0.906990        24.6805 
  69   0.0000       0.913105        24.8469 
  70   0.0000       0.913578        24.8597 
  71   0.0000       0.922792        25.1105 
  72   0.0000       0.948598        25.8127 
  73   0.0000       0.948598        25.8127 
  74   0.0000       0.975518        26.5452 
  75   0.0000       0.975561        26.5464 
  76   0.0000       0.975561        26.5464 
  77   0.0000       1.010429        27.4952 
  78   0.0000       1.010429        27.4952 
  79   0.0000       1.112198        30.2644 
  80   0.0000       1.113428        30.2979 
  81   0.0000       1.284511        34.9533 
  82   0.0000       1.385132        37.6914 
  83   0.0000       1.538321        41.8598 
  84   0.0000       1.538321        41.8598 
  85   0.0000       1.871582        50.9283 
  86   0.0000       1.901589        51.7449 
  87   0.0000       1.901589        51.7449 
  88   0.0000       2.002669        54.4954 
  89   0.0000       2.071565        56.3701 
  90   0.0000       2.071565        56.3701 
  91   0.0000       2.121709        57.7346 
  92   0.0000       2.122008        57.7428 
  93   0.0000       2.206722        60.0480 
  94   0.0000       2.505875        68.1883 
  95   0.0000       2.593756        70.5797 
  96   0.0000       2.595061        70.6152 
  97   0.0000       2.610591        71.0378 
  98   0.0000       2.610591        71.0378 
  99   0.0000       2.686538        73.1044 
 100   0.0000       2.686538        73.1044 
 101   0.0000       2.814413        76.5841 
 102   0.0000       2.861190        77.8569 
 103   0.0000       2.865200        77.9660 
 104   0.0000       3.008048        81.8532 
 105   0.0000       3.008048        81.8532 
 106   0.0000       3.171017        86.2878 
 107   0.0000       3.248573        88.3982 
 108   0.0000       3.248573        88.3982 
 109   0.0000       3.268960        88.9529 
 110   0.0000       3.269147        88.9580 
 111   0.0000       3.279108        89.2291 
 112   0.0000       3.279247        89.2328 
 113   0.0000       3.462988        94.2327 
 114   0.0000       3.463042        94.2342 
 115   0.0000       3.474182        94.5373 
 116   0.0000       3.474182        94.5373 
 117   0.0000       3.532627        96.1277 
 118   0.0000       3.532627        96.1277 
 119   0.0000       3.744062       101.8811 
 120   0.0000       3.744062       101.8811 
 121   0.0000       3.840204       104.4973 
 122   0.0000       3.920707       106.6879 
 123   0.0000       4.889602       133.0528 
 124   0.0000       4.889602       133.0528 
 125   0.0000       5.271791       143.4527 
 126   0.0000       8.384998       228.1674 
 127   0.0000       8.384998       228.1674 
 128   0.0000       8.443939       229.7713 
 129   0.0000       8.475573       230.6321 
 130   0.0000       8.660139       235.6544 
 131   0.0000       8.669248       235.9022 
 132   0.0000       8.669248       235.9022 
 133   0.0000       8.772285       238.7060 
 134   0.0000       8.773589       238.7415 
 135   0.0000       8.896067       242.0743 
 136   0.0000       8.896067       242.0743 
 137   0.0000       8.964179       243.9277 
 138   0.0000      12.916690       351.4810 

                    ********************************
                    * MULLIKEN POPULATION ANALYSIS *
                    ********************************

--------------------------------------------
MULLIKEN ATOMIC CHARGES AND SPIN POPULATIONS
--------------------------------------------
   0 Ti:    0.635563    3.044686
   1 F :   -0.635563   -0.044686
Sum of atomic charges         :    0.0000000
Sum of atomic spin populations:    3.0000000

-----------------------------------------------------
MULLIKEN REDUCED ORBITAL CHARGES AND SPIN POPULATIONS
-----------------------------------------------------
CHARGE
  0 Tis       :     6.707195  s :     6.707195
      pz      :     4.032204  p :    12.052898
      px      :     4.010347
      py      :     4.010347
      dz2     :     0.441890  d :     2.592336
      dxz     :     0.076551
      dyz     :     0.076551
      dx2y2   :     0.998667
      dxy     :     0.998678
      f0      :     0.006077  f :     0.011499
      f+1     :     0.001959
      f-1     :     0.001959
      f+2     :     0.000752
      f-2     :     0.000752
      f+3     :     0.000000
      f-3     :     0.000000
      g0      :     0.001981  g :     0.000508
      g+1     :    -0.000771
      g-1     :    -0.000771
      g+2     :     0.000034
      g-2     :     0.000035
      g+3     :    -0.000000
      g-3     :    -0.000000
      g+4     :     0.000000
      g-4     :     0.000000
  1 F s       :     4.005843  s :     4.005843
      pz      :     1.800357  p :     5.617111
      px      :     1.908377
      py      :     1.908377
      dz2     :     0.003827  d :     0.011285
      dxz     :     0.003255
      dyz     :     0.003255
      dx2y2   :     0.000478
      dxy     :     0.000470
      f0      :     0.000625  f :     0.001324
      f+1     :     0.000281
      f-1     :     0.000281
      f+2     :     0.000068
      f-2     :     0.000066
      f+3     :     0.000001
      f-3     :     0.000001

SPIN
  0 Tis       :     0.677713  s :     0.677713
      pz      :     0.024843  p :     0.028606
      px      :     0.001881
      py      :     0.001881
      dz2     :     0.314387  d :     2.340076
      dxz     :     0.014172
      dyz     :     0.014172
      dx2y2   :     0.998667
      dxy     :     0.998678
      f0      :    -0.000017  f :    -0.000283
      f+1     :    -0.000886
      f-1     :    -0.000886
      f+2     :     0.000752
      f-2     :     0.000752
      f+3     :     0.000000
      f-3     :     0.000000
      g0      :    -0.000210  g :    -0.001425
      g+1     :    -0.000642
      g-1     :    -0.000642
      g+2     :     0.000034
      g-2     :     0.000035
      g+3     :     0.000000
      g-3     :     0.000000
      g+4     :     0.000000
      g-4     :     0.000000
  1 F s       :     0.005868  s :     0.005868
      pz      :    -0.023691  p :    -0.053808
      px      :    -0.015058
      py      :    -0.015058
      dz2     :     0.000936  d :     0.002896
      dxz     :     0.000506
      dyz     :     0.000506
      dx2y2   :     0.000478
      dxy     :     0.000470
      f0      :     0.000170  f :     0.000358
      f+1     :     0.000027
      f-1     :     0.000027
      f+2     :     0.000068
      f-2     :     0.000066
      f+3     :    -0.000000
      f-3     :    -0.000000


                     *******************************
                     * LOEWDIN POPULATION ANALYSIS *
                     *******************************

-------------------------------------------
LOEWDIN ATOMIC CHARGES AND SPIN POPULATIONS
-------------------------------------------
   0 Ti:    0.262121    2.990460
   1 F :   -0.262121    0.009540

----------------------------------------------------
LOEWDIN REDUCED ORBITAL CHARGES AND SPIN POPULATIONS
----------------------------------------------------
CHARGE
  0 Tis       :     6.581091  s :     6.581091
      pz      :     4.051274  p :    12.062302
      px      :     4.005514
      py      :     4.005514
      dz2     :     0.535224  d :     2.750383
      dxz     :     0.112468
      dyz     :     0.112468
      dx2y2   :     0.995108
      dxy     :     0.995115
      f0      :     0.099702  f :     0.199581
      f+1     :     0.048836
      f-1     :     0.048836
      f+2     :     0.001104
      f-2     :     0.001104
      f+3     :     0.000000
      f-3     :     0.000000
      g0      :     0.058927  g :     0.144522
      g+1     :     0.042619
      g-1     :     0.042619
      g+2     :     0.000178
      g-2     :     0.000179
      g+3     :     0.000000
      g-3     :     0.000000
      g+4     :     0.000000
      g-4     :     0.000000
  1 F s       :     3.718839  s :     3.718839
      pz      :     1.869645  p :     5.425984
      px      :     1.778169
      py      :     1.778169
      dz2     :     0.077120  d :     0.105981
      dxz     :     0.011338
      dyz     :     0.011338
      dx2y2   :     0.003095
      dxy     :     0.003089
      f0      :     0.008178  f :     0.011317
      f+1     :     0.001054
      f-1     :     0.001054
      f+2     :     0.000515
      f-2     :     0.000513
      f+3     :     0.000001
      f-3     :     0.000001

SPIN
  0 Tis       :     0.641954  s :     0.641954
      pz      :     0.029145  p :     0.033000
      px      :     0.001928
      py      :     0.001928
      dz2     :     0.302662  d :     2.318600
      dxz     :     0.012857
      dyz     :     0.012857
      dx2y2   :     0.995108
      dxy     :     0.995115
      f0      :     0.000158  f :    -0.000643
      f+1     :    -0.001504
      f-1     :    -0.001504
      f+2     :     0.001104
      f-2     :     0.001104
      f+3     :     0.000000
      f-3     :     0.000000
      g0      :    -0.000231  g :    -0.002452
      g+1     :    -0.001289
      g-1     :    -0.001289
      g+2     :     0.000178
      g-2     :     0.000179
      g+3     :     0.000000
      g-3     :     0.000000
      g+4     :     0.000000
      g-4     :     0.000000
  1 F s       :     0.013640  s :     0.013640
      pz      :     0.011743  p :    -0.012534
      px      :    -0.012139
      py      :    -0.012139
      dz2     :     0.000379  d :     0.006892
      dxz     :     0.000164
      dyz     :     0.000164
      dx2y2   :     0.003095
      dxy     :     0.003089
      f0      :     0.000550  f :     0.001543
      f+1     :    -0.000018
      f-1     :    -0.000018
      f+2     :     0.000515
      f-2     :     0.000513
      f+3     :    -0.000000
      f-3     :    -0.000000


                      *****************************
                      * MAYER POPULATION ANALYSIS *
                      *****************************

  NA   - Mulliken gross atomic population
  ZA   - Total nuclear charge
  QA   - Mulliken gross atomic charge
  VA   - Mayer's total valence
  BVA  - Mayer's bonded valence
  FA   - Mayer's free valence

  ATOM       NA         ZA         QA         VA         BVA        FA
  0 Ti    21.3644    22.0000     0.6356     3.7309     0.7536     2.9773
  1 F      9.6356     9.0000    -0.6356     0.7554     0.7536     0.0018

  Mayer bond orders larger than 0.100000
B(  0-Ti,  1-F ) :   0.7536 

-------
TIMINGS
-------

Total SCF time: 0 days 0 hours 0 min 2 sec 

Total time                  ....       2.738 sec
Sum of individual times     ....       2.608 sec  ( 95.3%)

Fock matrix formation       ....       2.231 sec  ( 81.5%)
  Split-RI-J                ....       1.867 sec  ( 83.7% of F)
  XC integration            ....       0.293 sec  ( 13.1% of F)
    Basis function eval.    ....       0.033 sec  ( 11.2% of XC)
    Density eval.           ....       0.041 sec  ( 13.9% of XC)
    XC-Functional eval.     ....       0.009 sec  (  3.1% of XC)
    XC-Potential eval.      ....       0.120 sec  ( 40.8% of XC)
Diagonalization             ....       0.076 sec  (  2.8%)
Density matrix formation    ....       0.010 sec  (  0.4%)
Population analysis         ....       0.007 sec  (  0.2%)
Initial guess               ....       0.117 sec  (  4.3%)
Orbital Transformation      ....       0.000 sec  (  0.0%)
Orbital Orthonormalization  ....       0.000 sec  (  0.0%)
DIIS solution               ....       0.028 sec  (  1.0%)
Grid generation             ....       0.141 sec  (  5.2%)


-------------------------------------------------------------------------------
                          DFT DISPERSION CORRECTION                            
                                                                               
                              DFTD3 V3.1  Rev 1                                
                          USING Becke-Johnson damping                          
-------------------------------------------------------------------------------
The TPSS functional is recognized
Active option DFTDOPT                   ...         4   

molecular C6(AA) [au] = 609.084614 


            DFT-D V3
 parameters
 s6 scaling factor         :     1.0000 
 a1 scaling factor         :     0.4535 
 s8 scaling factor         :     1.9435 
 a2 scaling factor         :     4.4752 
 ad hoc parameters k1-k3   :    16.0000     1.3333    -4.0000 

 Edisp/kcal,au: -0.396637013308  -0.000632081247 
 E6   /kcal   :  -0.154497887 
 E8   /kcal   :  -0.242139126 
 % E8         :  61.048040937 

-------------------------   ----------------
Dispersion correction           -0.000632081
-------------------------   ----------------


-------------------------   --------------------
FINAL SINGLE POINT ENERGY      -949.370244918510
-------------------------   --------------------



           ************************************************************
           *        Program running with 24 parallel MPI-processes    *
           *              working on a common directory               *
           ************************************************************
------------------------------------------------------------------------------
                         ORCA SCF GRADIENT CALCULATION
------------------------------------------------------------------------------

Gradient of the Kohn-Sham DFT energy:
Kohn-Sham wavefunction type      ... UKS
Hartree-Fock exchange scaling    ...    0.000
Number of operators              ...    2
Number of atoms                  ...    2
Basis set dimensions             ...  139
Integral neglect threshold       ... 2.5e-11
Integral primitive cutoff        ... 2.5e-12

Nuclear repulsion gradient       ... done
One Electron Gradient            ... done
Pre-screening matrix             ... done
RI-J gradient                    ... done
Exchange-correlation gradient    ... done
Dispersion correction            ... done

------------------
CARTESIAN GRADIENT
------------------

   1   Ti  :   -0.000000005    0.000000001   -0.057681707
   2   F   :   -0.000000001   -0.000000000    0.058547439

Difference to translation invariance:
           :   -0.0000000052    0.0000000009    0.0008657316

Norm of the cartesian gradient     ...    0.0821886968
RMS gradient                       ...    0.0335533949
MAX gradient                       ...    0.0585474386

-------
TIMINGS
-------

Total SCF gradient time            ...        4.222 sec

One electron gradient       ....       0.050 sec  (  1.2%)
Prescreening matrices       ....       3.372 sec  ( 79.9%)
RI-J Coulomb gradient       ....       0.231 sec  (  5.5%)
XC gradient                 ....       0.045 sec  (  1.1%)
------------------------------------------------------------------------------
                         ORCA GEOMETRY RELAXATION STEP
------------------------------------------------------------------------------

Reading the OPT-File                    .... done
Getting information on internals        .... done
Copying old internal coords+grads       .... done
Making the new internal coordinates     .... (new redundants).... done
Validating the new internal coordinates .... (new redundants).... done
Calculating the B-matrix                .... done
Calculating the G,G- and P matrices     .... done
Transforming gradient to internals      .... done
Projecting the internal gradient        .... done
Number of atoms                         ....   2
Number of internal coordinates          ....   1
Current Energy                          ....  -949.370244919 Eh
Current gradient norm                   ....     0.082188697 Eh/bohr
Maximum allowed component of the step   ....  0.300
Current trust radius                    ....  0.300
Evaluating the initial hessian          ....  (Almloef) done
Projecting the Hessian                  .... done
Forming the augmented Hessian           .... done
Diagonalizing the augmented Hessian     .... done
Last element of RFO vector              ....  0.994762224
Lowest eigenvalues of augmented Hessian:
 -0.005971519
Length of the computed step             ....  0.102754236
The final length of the internal step   ....  0.102754236
Converting the step to cartesian space:
 Initial RMS(Int)=    0.1027542362
Transforming coordinates:
 Iter   0:  RMS(Cart)=    0.0296625930 RMS(Int)=    0.1027542362
 Iter   1:  RMS(Cart)=    0.0000000000 RMS(Int)=    0.0000000000
done
Storing new coordinates                 .... done

                                .--------------------.
          ----------------------|Geometry convergence|-------------------------
          Item                value                   Tolerance       Converged
          ---------------------------------------------------------------------
          RMS gradient        0.0581145727            0.0001000000      NO
          MAX gradient        0.0581145727            0.0003000000      NO
          RMS step            0.1027542362            0.0020000000      NO
          MAX step            0.1027542362            0.0040000000      NO
          ........................................................
          Max(Bonds)      0.0544      Max(Angles)    0.00
          Max(Dihed)        0.00      Max(Improp)    0.00
          ---------------------------------------------------------------------

The optimization has not yet converged - more geometry cycles are needed


    ---------------------------------------------------------------------------
                         Redundant Internal Coordinates
                            (Angstroem and degrees)

        Definition                    Value    dE/dq     Step     New-Value
    ----------------------------------------------------------------------------
     1. B(F   1,Ti  0)                2.0000  0.058115 -0.0544    1.9456   
    ----------------------------------------------------------------------------

         *************************************************************
         *                GEOMETRY OPTIMIZATION CYCLE   2            *
         *************************************************************
---------------------------------
CARTESIAN COORDINATES (ANGSTROEM)
---------------------------------
  Ti     0.000000    0.000000    0.027188
  F      0.000000    0.000000    1.972812

----------------------------
CARTESIAN COORDINATES (A.U.)
----------------------------
  NO LB      ZA    FRAG     MASS         X           Y           Z
   0 Ti   22.0000    0    47.900    0.000000    0.000000    0.051377
   1 F     9.0000    0    18.998    0.000000    0.000000    3.728075

--------------------------------
INTERNAL COORDINATES (ANGSTROEM)
--------------------------------
 Ti     0   0   0     0.000000000000     0.00000000     0.00000000
 F      1   0   0     1.945624800126     0.00000000     0.00000000

---------------------------
INTERNAL COORDINATES (A.U.)
---------------------------
 Ti     0   0   0     0.000000000000     0.00000000     0.00000000
 F      1   0   0     3.676698031604     0.00000000     0.00000000



           ************************************************************
           *        Program running with 24 parallel MPI-processes    *
           *              working on a common directory               *
           ************************************************************
 One Electron integrals                  ... done
 Pre-screening matrix                    ... done


           ************************************************************
           *        Program running with 24 parallel MPI-processes    *
           *              working on a common directory               *
           ************************************************************

Diagonalization of the overlap matrix:
Smallest eigenvalue                        ... 6.038e-05
Time for diagonalization                   ...    0.005 sec
Threshold for overlap eigenvalues          ... 1.000e-08
Number of eigenvalues below threshold      ... 0
Time for construction of square roots      ...    0.002 sec
Total time needed                          ...    0.008 sec

-------------------
DFT GRID GENERATION
-------------------

General Integration Accuracy     IntAcc      ...  4.340
Radial Grid Type                 RadialGrid  ... Gauss-Chebyshev
Angular Grid (max. acc.)         AngularGrid ... Lebedev-110
Angular grid pruning method      GridPruning ... 3 (G Style)
Weight generation scheme         WeightScheme... Becke
Basis function cutoff            BFCut       ...    1.0000e-11
Integration weight cutoff        WCut        ...    1.0000e-14
Grids for H and He will be reduced by one unit

# of grid points (after initial pruning)     ...   4712 (   0.0 sec)
# of grid points (after weights+screening)   ...   4687 (   0.0 sec)
nearest neighbour list constructed           ...    0.0 sec
Grid point re-assignment to atoms done       ...    0.0 sec
Grid point division into batches done        ...    0.0 sec
Reduced shell lists constructed in    0.0 sec

Total number of grid points                  ...     4687
Total number of batches                      ...       74
Average number of points per batch           ...       63
Average number of grid points per atom       ...     2344
Average number of shells per batch           ...    22.40 (57.44%)
Average number of basis functions per batch  ...    72.00 (51.80%)
Average number of large shells per batch     ...    17.60 (78.57%)
Average number of large basis fcns per batch ...    60.80 (84.44%)
Maximum spatial batch extension              ...  18.98, 28.73, 16.15 au
Average spatial batch extension              ...   0.94,  1.30,  0.87 au

Time for grid setup =    0.019 sec

--------------
SCF ITERATIONS
--------------
ITER       Energy         Delta-E        Max-DP      RMS-DP      [F,P]     Damp
               ***  Starting incremental Fock matrix formation  ***
  0   -949.3738475479   0.000000000000 0.00203191  0.00004179  0.0069149 0.7000
  1   -949.3739159406  -0.000068392711 0.00216522  0.00003697  0.0036415 0.7000
                               ***Turning on DIIS***
  2   -949.3739676531  -0.000051712512 0.00680679  0.00011801  0.0026474 0.0000
  3   -949.3740961348  -0.000128481670 0.00321670  0.00005528  0.0010388 0.0000
  4   -949.3741014175  -0.000005282702 0.00787992  0.00008237  0.0005858 0.0000
  5   -949.3741042035  -0.000002785991 0.00120141  0.00001945  0.0012665 0.0000
  6   -949.3741064030  -0.000002199540 0.00184053  0.00002217  0.0008040 0.0000
  7   -949.3741081058  -0.000001702783 0.00415858  0.00004558  0.0003538 0.0000
  8   -949.3741086199  -0.000000514066 0.00171671  0.00001864  0.0000959 0.0000
  9   -949.3741086795  -0.000000059667 0.00042603  0.00000463  0.0000618 0.0000
 10   -949.3741086711   0.000000008398 0.00022651  0.00000255  0.0000443 0.0000
 11   -949.3741087064  -0.000000035299 0.00025975  0.00000313  0.0000115 0.0000
 12   -949.3741087459  -0.000000039470 0.00021705  0.00000170  0.0000073 0.0000
 13   -949.3741087532  -0.000000007268 0.00039008  0.00000305  0.0000136 0.0000
 14   -949.3741087215   0.000000031667 0.00006517  0.00000056  0.0000022 0.0000
                            ***DIIS convergence achieved***

               *****************************************************
               *                     SUCCESS                       *
               *           SCF CONVERGED AFTER  15 CYCLES          *
               *****************************************************

Setting up the final grid:

General Integration Accuracy     IntAcc      ...  4.670
Radial Grid Type                 RadialGrid  ... Gauss-Chebyshev
Angular Grid (max. acc.)         AngularGrid ... Lebedev-302
Angular grid pruning method      GridPruning ... 3 (G Style)
Weight generation scheme         WeightScheme... Becke
Basis function cutoff            BFCut       ...    1.0000e-11
Integration weight cutoff        WCut        ...    1.0000e-14
Grids for H and He will be reduced by one unit

# of grid points (after initial pruning)     ...  15936 (   0.0 sec)
# of grid points (after weights+screening)   ...  15893 (   0.0 sec)
nearest neighbour list constructed           ...    0.0 sec
Grid point re-assignment to atoms done       ...    0.0 sec
Grid point division into batches done        ...    0.1 sec
Reduced shell lists constructed in    0.1 sec

Total number of grid points                  ...    15893
Total number of batches                      ...      249
Average number of points per batch           ...       63
Average number of grid points per atom       ...     7946
Average number of shells per batch           ...    21.08 (54.06%)
Average number of basis functions per batch  ...    62.08 (44.66%)
Average number of large shells per batch     ...    13.00 (61.66%)
Average number of large basis fcns per batch ...    37.17 (59.87%)
Maximum spatial batch extension              ...  28.57, 31.41, 16.69 au
Average spatial batch extension              ...   0.89,  0.95,  0.67 au

Final grid set up in    0.1 sec
Final integration                            ... done (   0.0 sec)
Change in XC energy                          ...    -0.001105651
Integrated number of electrons               ...    30.999992329
Previous integrated no of electrons          ...    30.999762597
Total Energy       :         -949.37521440 Eh          -25833.81295 eV
  Last Energy change         ...   -2.4346e-08  Tolerance :   1.0000e-08
  Last MAX-Density change    ...    8.5601e-06  Tolerance :   1.0000e-07
             **** THE GBW FILE WAS UPDATED (08_TiF.gbw) ****
             **** DENSITY FILE WAS UPDATED (08_TiF.scfp) ****
             **** ENERGY FILE WAS UPDATED (08_TiF.en.tmp) ****
----------------------
UHF SPIN CONTAMINATION
----------------------

Warning: in a DFT calculation there is little theoretical justification to 
         calculate <S**2> as in Hartree-Fock theory. We will do it anyways
         but you should keep in mind that the values have only limited relevance

Expectation value of <S**2>     :     3.756061
Ideal value S*(S+1) for S=1.5   :     3.750000
Deviation                       :     0.006061

             **** THE GBW FILE WAS UPDATED (08_TiF.gbw) ****
             **** DENSITY FILE WAS UPDATED (08_TiF.scfp) ****
Total SCF time: 0 days 0 hours 0 min 3 sec 


-------------------------------------------------------------------------------
                          DFT DISPERSION CORRECTION                            
                                                                               
                              DFTD3 V3.1  Rev 1                                
                          USING Becke-Johnson damping                          
-------------------------------------------------------------------------------
-------------------------   ----------------
Dispersion correction           -0.000623533
-------------------------   ----------------


-------------------------   --------------------
FINAL SINGLE POINT ENERGY      -949.375837930098
-------------------------   --------------------



           ************************************************************
           *        Program running with 24 parallel MPI-processes    *
           *              working on a common directory               *
           ************************************************************
------------------------------------------------------------------------------
                         ORCA SCF GRADIENT CALCULATION
------------------------------------------------------------------------------

Gradient of the Kohn-Sham DFT energy:
Kohn-Sham wavefunction type      ... UKS
Hartree-Fock exchange scaling    ...    0.000
Number of operators              ...    2
Number of atoms                  ...    2
Basis set dimensions             ...  139
Integral neglect threshold       ... 2.5e-11
Integral primitive cutoff        ... 2.5e-12

Nuclear repulsion gradient       ... done
One Electron Gradient            ... done
Pre-screening matrix             ... done
RI-J gradient                    ... done
Exchange-correlation gradient    ... done
Dispersion correction            ... done

------------------
CARTESIAN GRADIENT
------------------

   1   Ti  :    0.000000004    0.000000001   -0.049951376
   2   F   :   -0.000000005   -0.000000000    0.050879031

Difference to translation invariance:
           :   -0.0000000013    0.0000000006    0.0009276547

Norm of the cartesian gradient     ...    0.0713008818
RMS gradient                       ...    0.0291084631
MAX gradient                       ...    0.0508790307

-------
TIMINGS
-------

Total SCF gradient time            ...        4.255 sec

One electron gradient       ....       0.070 sec  (  1.6%)
Prescreening matrices       ....       3.388 sec  ( 79.6%)
RI-J Coulomb gradient       ....       0.248 sec  (  5.8%)
XC gradient                 ....       0.051 sec  (  1.2%)
------------------------------------------------------------------------------
                         ORCA GEOMETRY RELAXATION STEP
------------------------------------------------------------------------------

Reading the OPT-File                    .... done
Getting information on internals        .... done
Copying old internal coords+grads       .... done
Making the new internal coordinates     .... (new redundants).... done
Validating the new internal coordinates .... (new redundants).... done
Calculating the B-matrix                .... done
Calculating the G,G- and P matrices     .... done
Transforming gradient to internals      .... done
Projecting the internal gradient        .... done
Number of atoms                         ....   2
Number of internal coordinates          ....   1
Current Energy                          ....  -949.375837930 Eh
Current gradient norm                   ....     0.071300882 Eh/bohr
Maximum allowed component of the step   ....  0.300
Current trust radius                    ....  0.300
Updating the Hessian (BFGS)             .... done
Forming the augmented Hessian           .... done
Diagonalizing the augmented Hessian     .... done
Last element of RFO vector              ....  0.893438394
Lowest eigenvalues of augmented Hessian:
 -0.025346785
Length of the computed step             ....  0.502760741
Warning: the length of the step is outside the trust region - taking restricted step instead
The input lambda is                     ....    -0.025347
   iter:   1  x=   -0.057633  g=    5.041416 f(x)=     0.162768
   iter:   2  x=   -0.082671  g=    2.182159 f(x)=     0.054637
   iter:   3  x=   -0.092166  g=    1.298605 f(x)=     0.012331
   iter:   4  x=   -0.093113  g=    1.089566 f(x)=     0.001031
   iter:   5  x=   -0.093121  g=    1.071261 f(x)=     0.000009
   iter:   6  x=   -0.093121  g=    1.071105 f(x)=     0.000000
   iter:   7  x=   -0.093121  g=    1.071105 f(x)=    -0.000000
The output lambda is                    ....    -0.093121 (7 iterations)
The final length of the internal step   ....  0.300000000
Converting the step to cartesian space:
 Initial RMS(Int)=    0.3000000000
Transforming coordinates:
 Iter   0:  RMS(Cart)=    0.0866025404 RMS(Int)=    0.3000000000
 Iter   1:  RMS(Cart)=    0.0000000000 RMS(Int)=    0.0000000000
done
Storing new coordinates                 .... done

                                .--------------------.
          ----------------------|Geometry convergence|-------------------------
          Item                value                   Tolerance       Converged
          ---------------------------------------------------------------------
          Energy change      -0.0055930116            0.0000050000      NO
          RMS gradient        0.0504152034            0.0001000000      NO
          MAX gradient        0.0504152034            0.0003000000      NO
          RMS step            0.3000000000            0.0020000000      NO
          MAX step            0.3000000000            0.0040000000      NO
          ........................................................
          Max(Bonds)      0.1588      Max(Angles)    0.00
          Max(Dihed)        0.00      Max(Improp)    0.00
          ---------------------------------------------------------------------

The optimization has not yet converged - more geometry cycles are needed


    ---------------------------------------------------------------------------
                         Redundant Internal Coordinates
                            (Angstroem and degrees)

        Definition                    Value    dE/dq     Step     New-Value
    ----------------------------------------------------------------------------
     1. B(F   1,Ti  0)                1.9456  0.050415 -0.1588    1.7869   
    ----------------------------------------------------------------------------

         *************************************************************
         *                GEOMETRY OPTIMIZATION CYCLE   3            *
         *************************************************************
---------------------------------
CARTESIAN COORDINATES (ANGSTROEM)
---------------------------------
  Ti     0.000000    0.000000    0.106564
  F      0.000000    0.000000    1.893436

----------------------------
CARTESIAN COORDINATES (A.U.)
----------------------------
  NO LB      ZA    FRAG     MASS         X           Y           Z
   0 Ti   22.0000    0    47.900    0.000000    0.000000    0.201377
   1 F     9.0000    0    18.998    0.000000    0.000000    3.578075

--------------------------------
INTERNAL COORDINATES (ANGSTROEM)
--------------------------------
 Ti     0   0   0     0.000000000000     0.00000000     0.00000000
 F      1   0   0     1.786871637636     0.00000000     0.00000000

---------------------------
INTERNAL COORDINATES (A.U.)
---------------------------
 Ti     0   0   0     0.000000000000     0.00000000     0.00000000
 F      1   0   0     3.376698031604     0.00000000     0.00000000



           ************************************************************
           *        Program running with 24 parallel MPI-processes    *
           *              working on a common directory               *
           ************************************************************
 One Electron integrals                  ... done
 Pre-screening matrix                    ... done


           ************************************************************
           *        Program running with 24 parallel MPI-processes    *
           *              working on a common directory               *
           ************************************************************

Diagonalization of the overlap matrix:
Smallest eigenvalue                        ... 5.777e-05
Time for diagonalization                   ...    0.005 sec
Threshold for overlap eigenvalues          ... 1.000e-08
Number of eigenvalues below threshold      ... 0
Time for construction of square roots      ...    0.003 sec
Total time needed                          ...    0.008 sec

-------------------
DFT GRID GENERATION
-------------------

General Integration Accuracy     IntAcc      ...  4.340
Radial Grid Type                 RadialGrid  ... Gauss-Chebyshev
Angular Grid (max. acc.)         AngularGrid ... Lebedev-110
Angular grid pruning method      GridPruning ... 3 (G Style)
Weight generation scheme         WeightScheme... Becke
Basis function cutoff            BFCut       ...    1.0000e-11
Integration weight cutoff        WCut        ...    1.0000e-14
Grids for H and He will be reduced by one unit

# of grid points (after initial pruning)     ...   4712 (   0.0 sec)
# of grid points (after weights+screening)   ...   4687 (   0.0 sec)
nearest neighbour list constructed           ...    0.0 sec
Grid point re-assignment to atoms done       ...    0.0 sec
Grid point division into batches done        ...    0.0 sec
Reduced shell lists constructed in    0.0 sec

Total number of grid points                  ...     4687
Total number of batches                      ...       75
Average number of points per batch           ...       62
Average number of grid points per atom       ...     2344
Average number of shells per batch           ...    22.40 (57.44%)
Average number of basis functions per batch  ...    72.00 (51.80%)
Average number of large shells per batch     ...    18.00 (80.36%)
Average number of large basis fcns per batch ...    61.20 (85.00%)
Maximum spatial batch extension              ...  18.98, 28.73, 15.95 au
Average spatial batch extension              ...   0.94,  1.29,  0.85 au

Time for grid setup =    0.019 sec

--------------
SCF ITERATIONS
--------------
ITER       Energy         Delta-E        Max-DP      RMS-DP      [F,P]     Damp
               ***  Starting incremental Fock matrix formation  ***
  0   -949.3803608769   0.000000000000 0.00703164  0.00015514  0.0210295 0.7000
  1   -949.3811938119  -0.000832935053 0.00743421  0.00011899  0.0125149 0.7000
                               ***Turning on DIIS***
  2   -949.3818440612  -0.000650249328 0.02119524  0.00034632  0.0090524 0.0000
  3   -949.3834057402  -0.001561678942 0.01053627  0.00020405  0.0037779 0.0000
  4   -949.3834531663  -0.000047426072 0.00604373  0.00008983  0.0016336 0.0000
  5   -949.3834719447  -0.000018778493 0.00506614  0.00005142  0.0014578 0.0000
  6   -949.3834825743  -0.000010629562 0.01574161  0.00016053  0.0007149 0.0000
  7   -949.3834991015  -0.000016527149 0.00968785  0.00009879  0.0005392 0.0000
  8   -949.3835011120  -0.000002010563 0.00434604  0.00004726  0.0003529 0.0000
  9   -949.3835016408  -0.000000528816 0.00428103  0.00004249  0.0003492 0.0000
 10   -949.3835021624  -0.000000521573 0.00210170  0.00002137  0.0000757 0.0000
 11   -949.3835022231  -0.000000060656 0.00057518  0.00000677  0.0000318 0.0000
 12   -949.3835023021  -0.000000078997 0.00059145  0.00000474  0.0000236 0.0000
 13   -949.3835023509  -0.000000048863 0.00117203  0.00000935  0.0000386 0.0000
 14   -949.3835022086   0.000000142357 0.00032690  0.00000310  0.0000089 0.0000
 15   -949.3835022209  -0.000000012323 0.00001348  0.00000017  0.0000019 0.0000
 16   -949.3835021934   0.000000027461 0.00001743  0.00000019  0.0000012 0.0000
                            ***DIIS convergence achieved***

               *****************************************************
               *                     SUCCESS                       *
               *           SCF CONVERGED AFTER  17 CYCLES          *
               *****************************************************

Setting up the final grid:

General Integration Accuracy     IntAcc      ...  4.670
Radial Grid Type                 RadialGrid  ... Gauss-Chebyshev
Angular Grid (max. acc.)         AngularGrid ... Lebedev-302
Angular grid pruning method      GridPruning ... 3 (G Style)
Weight generation scheme         WeightScheme... Becke
Basis function cutoff            BFCut       ...    1.0000e-11
Integration weight cutoff        WCut        ...    1.0000e-14
Grids for H and He will be reduced by one unit

# of grid points (after initial pruning)     ...  15936 (   0.0 sec)
# of grid points (after weights+screening)   ...  15887 (   0.0 sec)
nearest neighbour list constructed           ...    0.0 sec
Grid point re-assignment to atoms done       ...    0.0 sec
Grid point division into batches done        ...    0.1 sec
Reduced shell lists constructed in    0.1 sec

Total number of grid points                  ...    15887
Total number of batches                      ...      250
Average number of points per batch           ...       63
Average number of grid points per atom       ...     7944
Average number of shells per batch           ...    21.08 (54.06%)
Average number of basis functions per batch  ...    62.08 (44.66%)
Average number of large shells per batch     ...    13.08 (62.06%)
Average number of large basis fcns per batch ...    37.42 (60.27%)
Maximum spatial batch extension              ...  28.57, 31.41, 18.50 au
Average spatial batch extension              ...   0.88,  0.94,  0.67 au

Final grid set up in    0.1 sec
Final integration                            ... done (   0.1 sec)
Change in XC energy                          ...    -0.000953999
Integrated number of electrons               ...    31.000014469
Previous integrated no of electrons          ...    31.000390074
Total Energy       :         -949.38445621 Eh          -25834.06443 eV
  Last Energy change         ...   -2.1584e-08  Tolerance :   1.0000e-08
  Last MAX-Density change    ...    7.0132e-06  Tolerance :   1.0000e-07
             **** THE GBW FILE WAS UPDATED (08_TiF.gbw) ****
             **** DENSITY FILE WAS UPDATED (08_TiF.scfp) ****
             **** ENERGY FILE WAS UPDATED (08_TiF.en.tmp) ****
----------------------
UHF SPIN CONTAMINATION
----------------------

Warning: in a DFT calculation there is little theoretical justification to 
         calculate <S**2> as in Hartree-Fock theory. We will do it anyways
         but you should keep in mind that the values have only limited relevance

Expectation value of <S**2>     :     3.755119
Ideal value S*(S+1) for S=1.5   :     3.750000
Deviation                       :     0.005119

             **** THE GBW FILE WAS UPDATED (08_TiF.gbw) ****
             **** DENSITY FILE WAS UPDATED (08_TiF.scfp) ****
Total SCF time: 0 days 0 hours 0 min 3 sec 


-------------------------------------------------------------------------------
                          DFT DISPERSION CORRECTION                            
                                                                               
                              DFTD3 V3.1  Rev 1                                
                          USING Becke-Johnson damping                          
-------------------------------------------------------------------------------
-------------------------   ----------------
Dispersion correction           -0.000615277
-------------------------   ----------------


-------------------------   --------------------
FINAL SINGLE POINT ENERGY      -949.385071491065
-------------------------   --------------------



           ************************************************************
           *        Program running with 24 parallel MPI-processes    *
           *              working on a common directory               *
           ************************************************************
------------------------------------------------------------------------------
                         ORCA SCF GRADIENT CALCULATION
------------------------------------------------------------------------------

Gradient of the Kohn-Sham DFT energy:
Kohn-Sham wavefunction type      ... UKS
Hartree-Fock exchange scaling    ...    0.000
Number of operators              ...    2
Number of atoms                  ...    2
Basis set dimensions             ...  139
Integral neglect threshold       ... 2.5e-11
Integral primitive cutoff        ... 2.5e-12

Nuclear repulsion gradient       ... done
One Electron Gradient            ... done
Pre-screening matrix             ... done
RI-J gradient                    ... done
Exchange-correlation gradient    ... done
Dispersion correction            ... done

------------------
CARTESIAN GRADIENT
------------------

   1   Ti  :    0.000000008    0.000000001   -0.002984287
   2   F   :    0.000000001   -0.000000005    0.004115948

Difference to translation invariance:
[...]
 105   0.0000       3.106948        84.5444 
 106   0.0000       3.204249        87.1920 
 107   0.0000       3.204445        87.1974 
 108   0.0000       3.206670        87.2579 
 109   0.0000       3.206670        87.2579 
 110   0.0000       3.239604        88.1541 
 111   0.0000       3.368072        91.6499 
 112   0.0000       3.369384        91.6856 
 113   0.0000       3.391255        92.2807 
 114   0.0000       3.391255        92.2807 
 115   0.0000       3.431453        93.3746 
 116   0.0000       3.431812        93.3843 
 117   0.0000       3.553280        96.6897 
 118   0.0000       3.553280        96.6897 
 119   0.0000       3.669354        99.8482 
 120   0.0000       3.955550       107.6360 
 121   0.0000       3.955550       107.6360 
 122   0.0000       4.391229       119.4914 
 123   0.0000       4.900545       133.3506 
 124   0.0000       4.900545       133.3506 
 125   0.0000       5.439357       148.0124 
 126   0.0000       8.363565       227.5842 
 127   0.0000       8.363565       227.5842 
 128   0.0000       8.448719       229.9013 
 129   0.0000       8.514741       231.6979 
 130   0.0000       8.758611       238.3339 
 131   0.0000       8.761435       238.4108 
 132   0.0000       8.766491       238.5484 
 133   0.0000       8.766491       238.5484 
 134   0.0000       8.779880       238.9127 
 135   0.0000       8.857369       241.0213 
 136   0.0000       8.857369       241.0213 
 137   0.0000       9.016899       245.3623 
 138   0.0000      13.353746       363.3739 

                 SPIN DOWN ORBITALS
  NO   OCC          E(Eh)            E(eV) 
   0   1.0000    -178.113948     -4846.7269 
   1   1.0000     -24.371737      -663.1887 
   2   1.0000     -19.495353      -530.4955 
   3   1.0000     -16.247299      -442.1115 
   4   1.0000     -16.219375      -441.3516 
   5   1.0000     -16.219375      -441.3516 
   6   1.0000      -2.178838       -59.2892 
   7   1.0000      -1.376021       -37.4434 
   8   1.0000      -1.292440       -35.1691 
   9   1.0000      -1.292440       -35.1691 
  10   1.0000      -1.035415       -28.1751 
  11   1.0000      -0.360185        -9.8011 
  12   1.0000      -0.342112        -9.3093 
  13   1.0000      -0.342112        -9.3093 
  14   0.0000      -0.089709        -2.4411 
  15   0.0000      -0.054740        -1.4896 
  16   0.0000      -0.054740        -1.4896 
  17   0.0000      -0.045206        -1.2301 
  18   0.0000      -0.026217        -0.7134 
  19   0.0000      -0.026110        -0.7105 
  20   0.0000       0.008034         0.2186 
  21   0.0000       0.008035         0.2186 
  22   0.0000       0.016416         0.4467 
  23   0.0000       0.018084         0.4921 
  24   0.0000       0.042367         1.1529 
  25   0.0000       0.042367         1.1529 
  26   0.0000       0.047698         1.2979 
  27   0.0000       0.047699         1.2980 
  28   0.0000       0.047920         1.3040 
  29   0.0000       0.051057         1.3893 
  30   0.0000       0.051068         1.3896 
  31   0.0000       0.066724         1.8157 
  32   0.0000       0.113753         3.0954 
  33   0.0000       0.153100         4.1661 
  34   0.0000       0.153100         4.1661 
  35   0.0000       0.156766         4.2658 
  36   0.0000       0.167394         4.5550 
  37   0.0000       0.167394         4.5550 
  38   0.0000       0.169412         4.6099 
  39   0.0000       0.169791         4.6202 
  40   0.0000       0.212408         5.7799 
  41   0.0000       0.220795         6.0082 
  42   0.0000       0.232003         6.3131 
  43   0.0000       0.232003         6.3131 
  44   0.0000       0.269633         7.3371 
  45   0.0000       0.270556         7.3622 
  46   0.0000       0.281021         7.6470 
  47   0.0000       0.281021         7.6470 
  48   0.0000       0.348604         9.4860 
  49   0.0000       0.348604         9.4860 
  50   0.0000       0.349521         9.5109 
  51   0.0000       0.405701        11.0397 
  52   0.0000       0.484086        13.1726 
  53   0.0000       0.549173        14.9438 
  54   0.0000       0.549173        14.9438 
  55   0.0000       0.552137        15.0244 
  56   0.0000       0.552695        15.0396 
  57   0.0000       0.561343        15.2749 
  58   0.0000       0.561343        15.2749 
  59   0.0000       0.611410        16.6373 
  60   0.0000       0.756556        20.5869 
  61   0.0000       0.780910        21.2496 
  62   0.0000       0.781287        21.2599 
  63   0.0000       0.869341        23.6560 
  64   0.0000       0.869341        23.6560 
  65   0.0000       0.908577        24.7236 
  66   0.0000       0.908577        24.7236 
  67   0.0000       0.909659        24.7531 
  68   0.0000       0.910499        24.7759 
  69   0.0000       0.913112        24.8470 
  70   0.0000       0.913953        24.8699 
  71   0.0000       0.922696        25.1078 
  72   0.0000       0.953798        25.9542 
  73   0.0000       0.953798        25.9542 
  74   0.0000       0.961594        26.1663 
  75   0.0000       0.961594        26.1663 
  76   0.0000       1.016746        27.6671 
  77   0.0000       1.062552        28.9135 
  78   0.0000       1.062552        28.9135 
  79   0.0000       1.159700        31.5571 
  80   0.0000       1.160509        31.5790 
  81   0.0000       1.335334        36.3363 
  82   0.0000       1.479350        40.2551 
  83   0.0000       1.597705        43.4758 
  84   0.0000       1.597705        43.4758 
  85   0.0000       1.867790        50.8251 
  86   0.0000       1.903198        51.7886 
  87   0.0000       1.903198        51.7887 
  88   0.0000       2.033395        55.3315 
  89   0.0000       2.033395        55.3315 
  90   0.0000       2.125989        57.8511 
  91   0.0000       2.126173        57.8561 
  92   0.0000       2.135106        58.0992 
  93   0.0000       2.176961        59.2381 
  94   0.0000       2.468154        67.1619 
  95   0.0000       2.533631        68.9436 
  96   0.0000       2.545085        69.2553 
  97   0.0000       2.606159        70.9172 
  98   0.0000       2.606159        70.9172 
  99   0.0000       2.677640        72.8623 
 100   0.0000       2.677640        72.8623 
 101   0.0000       2.889514        78.6277 
 102   0.0000       2.890632        78.6581 
 103   0.0000       2.995073        81.5001 
 104   0.0000       3.122949        84.9798 
 105   0.0000       3.122949        84.9798 
 106   0.0000       3.255163        88.5775 
 107   0.0000       3.255163        88.5775 
 108   0.0000       3.269823        88.9764 
 109   0.0000       3.278582        89.2147 
 110   0.0000       3.278629        89.2160 
 111   0.0000       3.399797        92.5132 
 112   0.0000       3.401131        92.5495 
 113   0.0000       3.478368        94.6512 
 114   0.0000       3.478776        94.6623 
 115   0.0000       3.484428        94.8161 
 116   0.0000       3.484428        94.8161 
 117   0.0000       3.598821        97.9289 
 118   0.0000       3.598821        97.9289 
 119   0.0000       3.687907       100.3531 
 120   0.0000       3.971027       108.0571 
 121   0.0000       3.971027       108.0571 
 122   0.0000       4.416183       120.1704 
 123   0.0000       4.897462       133.2667 
 124   0.0000       4.897462       133.2667 
 125   0.0000       5.439886       148.0268 
 126   0.0000       8.359770       227.4809 
 127   0.0000       8.359770       227.4809 
 128   0.0000       8.445289       229.8080 
 129   0.0000       8.510639       231.5863 
 130   0.0000       8.753776       238.2024 
 131   0.0000       8.756354       238.2725 
 132   0.0000       8.763378       238.4636 
 133   0.0000       8.763378       238.4636 
 134   0.0000       8.777427       238.8459 
 135   0.0000       8.852673       240.8935 
 136   0.0000       8.852673       240.8935 
 137   0.0000       9.012037       245.2300 
 138   0.0000      13.351555       363.3143 

                    ********************************
                    * MULLIKEN POPULATION ANALYSIS *
                    ********************************

--------------------------------------------
MULLIKEN ATOMIC CHARGES AND SPIN POPULATIONS
--------------------------------------------
   0 Ti:    0.555364    3.045980
   1 F :   -0.555364   -0.045980
Sum of atomic charges         :    0.0000000
Sum of atomic spin populations:    3.0000000

-----------------------------------------------------
MULLIKEN REDUCED ORBITAL CHARGES AND SPIN POPULATIONS
-----------------------------------------------------
CHARGE
  0 Tis       :     6.788730  s :     6.788730
      pz      :     4.035174  p :    12.047350
      px      :     4.006088
      py      :     4.006088
      dz2     :     0.403173  d :     2.596785
      dxz     :     0.098574
      dyz     :     0.098574
      dx2y2   :     0.998224
      dxy     :     0.998240
      f0      :     0.008154  f :     0.011864
      f+1     :     0.001326
      f-1     :     0.001326
      f+2     :     0.000529
      f-2     :     0.000529
      f+3     :    -0.000000
      f-3     :    -0.000000
      g0      :     0.001353  g :    -0.000092
      g+1     :    -0.000732
      g-1     :    -0.000732
      g+2     :     0.000009
      g-2     :     0.000010
      g+3     :    -0.000000
      g-3     :    -0.000000
      g+4     :     0.000000
      g-4     :     0.000000
  1 F s       :     3.995075  s :     3.995075
      pz      :     1.763335  p :     5.541247
      px      :     1.888956
      py      :     1.888956
      dz2     :     0.004043  d :     0.016470
      dxz     :     0.005156
      dyz     :     0.005156
      dx2y2   :     0.001063
      dxy     :     0.001052
      f0      :     0.000963  f :     0.002571
      f+1     :     0.000631
      f-1     :     0.000631
      f+2     :     0.000175
      f-2     :     0.000168
      f+3     :     0.000001
      f-3     :     0.000001

SPIN
  0 Tis       :     0.759747  s :     0.759747
      pz      :     0.032265  p :     0.035757
      px      :     0.001746
      py      :     0.001746
      dz2     :     0.223299  d :     2.251889
      dxz     :     0.016063
      dyz     :     0.016063
      dx2y2   :     0.998224
      dxy     :     0.998240
      f0      :    -0.000133  f :     0.000057
      f+1     :    -0.000435
      f-1     :    -0.000435
      f+2     :     0.000529
      f-2     :     0.000529
      f+3     :     0.000000
      f-3     :     0.000000
      g0      :    -0.000172  g :    -0.001470
      g+1     :    -0.000658
      g-1     :    -0.000658
      g+2     :     0.000009
      g-2     :     0.000010
      g+3     :     0.000000
      g-3     :     0.000000
      g+4     :     0.000000
      g-4     :     0.000000
  1 F s       :     0.002871  s :     0.002871
      pz      :    -0.019677  p :    -0.054756
      px      :    -0.017539
      py      :    -0.017539
      dz2     :     0.001492  d :     0.005203
      dxz     :     0.000798
      dyz     :     0.000798
      dx2y2   :     0.001063
      dxy     :     0.001052
      f0      :     0.000307  f :     0.000701
      f+1     :     0.000025
      f-1     :     0.000025
      f+2     :     0.000175
      f-2     :     0.000168
      f+3     :    -0.000000
      f-3     :    -0.000000


                     *******************************
                     * LOEWDIN POPULATION ANALYSIS *
                     *******************************

-------------------------------------------
LOEWDIN ATOMIC CHARGES AND SPIN POPULATIONS
-------------------------------------------
   0 Ti:    0.231481    2.957023
   1 F :   -0.231481    0.042977

----------------------------------------------------
LOEWDIN REDUCED ORBITAL CHARGES AND SPIN POPULATIONS
----------------------------------------------------
CHARGE
  0 Tis       :     6.542807  s :     6.542807
      pz      :     4.040910  p :    11.998068
      px      :     3.978579
      py      :     3.978579
      dz2     :     0.531890  d :     2.813954
      dxz     :     0.151740
      dyz     :     0.151740
      dx2y2   :     0.989288
      dxy     :     0.989297
      f0      :     0.114564  f :     0.240625
      f+1     :     0.061838
      f-1     :     0.061838
      f+2     :     0.001193
      f-2     :     0.001192
      f+3     :     0.000000
      f-3     :     0.000000
      g0      :     0.067786  g :     0.173064
      g+1     :     0.052327
      g-1     :     0.052327
      g+2     :     0.000309
      g-2     :     0.000315
      g+3     :     0.000000
      g-3     :     0.000000
      g+4     :     0.000000
      g-4     :     0.000000
  1 F s       :     3.665848  s :     3.665848
      pz      :     1.886259  p :     5.331980
      px      :     1.722860
      py      :     1.722860
      dz2     :     0.126938  d :     0.198712
      dxz     :     0.028167
      dyz     :     0.028167
      dx2y2   :     0.007724
      dxy     :     0.007715
      f0      :     0.022999  f :     0.034941
      f+1     :     0.004486
      f-1     :     0.004486
      f+2     :     0.001486
      f-2     :     0.001482
      f+3     :     0.000001
      f-3     :     0.000001

SPIN
  0 Tis       :     0.696423  s :     0.696423
      pz      :     0.040288  p :     0.044215
      px      :     0.001964
      py      :     0.001964
      dz2     :     0.214610  d :     2.220665
      dxz     :     0.013736
      dyz     :     0.013736
      dx2y2   :     0.989288
      dxy     :     0.989297
      f0      :    -0.000308  f :    -0.001236
      f+1     :    -0.001656
      f-1     :    -0.001656
      f+2     :     0.001193
      f-2     :     0.001192
      f+3     :    -0.000000
      f-3     :    -0.000000
      g0      :    -0.000291  g :    -0.003045
      g+1     :    -0.001688
      g-1     :    -0.001688
      g+2     :     0.000309
      g-2     :     0.000315
      g+3     :     0.000000
      g-3     :     0.000000
      g+4     :     0.000000
      g-4     :     0.000000
  1 F s       :     0.022675  s :     0.022675
      pz      :     0.025054  p :     0.000026
      px      :    -0.012514
      py      :    -0.012514
      dz2     :     0.000515  d :     0.016413
      dxz     :     0.000229
      dyz     :     0.000229
      dx2y2   :     0.007724
      dxy     :     0.007715
      f0      :     0.001034  f :     0.003864
      f+1     :    -0.000070
      f-1     :    -0.000070
      f+2     :     0.001486
      f-2     :     0.001482
      f+3     :    -0.000000
      f-3     :    -0.000000


                      *****************************
                      * MAYER POPULATION ANALYSIS *
                      *****************************

  NA   - Mulliken gross atomic population
  ZA   - Total nuclear charge
  QA   - Mulliken gross atomic charge
  VA   - Mayer's total valence
  BVA  - Mayer's bonded valence
  FA   - Mayer's free valence

  ATOM       NA         ZA         QA         VA         BVA        FA
  0 Ti    21.4446    22.0000     0.5554     3.8560     0.8813     2.9747
  1 F      9.5554     9.0000    -0.5554     0.8829     0.8813     0.0016

  Mayer bond orders larger than 0.100000
B(  0-Ti,  1-F ) :   0.8813 

-------
TIMINGS
-------

Total SCF time: 0 days 0 hours 0 min 2 sec 

Total time                  ....       2.029 sec
Sum of individual times     ....       1.857 sec  ( 91.5%)

Fock matrix formation       ....       1.647 sec  ( 81.2%)
  Split-RI-J                ....       1.148 sec  ( 69.7% of F)
  XC integration            ....       0.261 sec  ( 15.8% of F)
    Basis function eval.    ....       0.022 sec  (  8.5% of XC)
    Density eval.           ....       0.029 sec  ( 11.2% of XC)
    XC-Functional eval.     ....       0.006 sec  (  2.3% of XC)
    XC-Potential eval.      ....       0.074 sec  ( 28.4% of XC)
Diagonalization             ....       0.045 sec  (  2.2%)
Density matrix formation    ....       0.006 sec  (  0.3%)
Population analysis         ....       0.007 sec  (  0.4%)
Initial guess               ....       0.014 sec  (  0.7%)
Orbital Transformation      ....       0.000 sec  (  0.0%)
Orbital Orthonormalization  ....       0.008 sec  (  0.4%)
DIIS solution               ....       0.013 sec  (  0.6%)
Grid generation             ....       0.125 sec  (  6.2%)


-------------------------------------------------------------------------------
                          DFT DISPERSION CORRECTION                            
                                                                               
                              DFTD3 V3.1  Rev 1                                
                          USING Becke-Johnson damping                          
-------------------------------------------------------------------------------
The TPSS functional is recognized
Active option DFTDOPT                   ...         4   

molecular C6(AA) [au] = 561.272477 


            DFT-D V3
 parameters
 s6 scaling factor         :     1.0000 
 a1 scaling factor         :     0.4535 
 s8 scaling factor         :     1.9435 
 a2 scaling factor         :     4.4752 
 ad hoc parameters k1-k3   :    16.0000     1.3333    -4.0000 

 Edisp/kcal,au: -0.386026148415  -0.000615171759 
 E6   /kcal   :  -0.150876198 
 E8   /kcal   :  -0.235149950 
 % E8         :  60.915549737 

-------------------------   ----------------
Dispersion correction           -0.000615172
-------------------------   ----------------


-------------------------   --------------------
FINAL SINGLE POINT ENERGY      -949.385099707993
-------------------------   --------------------

                                *** OPTIMIZATION RUN DONE ***

                            ***************************************
                            *     ORCA property calculations      *
                            ***************************************

                                    ---------------------
                                    Active property flags
                                    ---------------------
   (+) Dipole Moment


------------------------------------------------------------------------------
                       ORCA ELECTRIC PROPERTIES CALCULATION
------------------------------------------------------------------------------

Dipole Moment Calculation                       ... on
Quadrupole Moment Calculation                   ... off
Polarizability Calculation                      ... off
GBWName                                         ... 08_TiF.gbw
Electron density file                           ... 08_TiF.scfp
The origin for moment calculation is the CENTER OF MASS  = ( 0.000000,  0.000000  1.163448)

-------------
DIPOLE MOMENT
-------------
                                X             Y             Z
Electronic contribution:     -0.00000      -0.00000      -1.92710
Nuclear contribution   :      0.00000       0.00000       0.66059
                        -----------------------------------------
Total Dipole Moment    :     -0.00000      -0.00000      -1.26651
                        -----------------------------------------
Magnitude (a.u.)       :      1.26651
Magnitude (Debye)      :      3.21921



--------------------
Rotational spectrum 
--------------------
 
Rotational constants in cm-1:     0.000000     0.391496     0.391496 
Rotational constants in MHz :     0.000000 11736.757371 11736.757371 

 Dipole components along the rotational axes: 
x,y,z [a.u.] :    -1.266508    -0.000000    -0.000000 
x,y,z [Debye]:    -3.219207    -0.000000    -0.000000 

 

Timings for individual modules:

Sum of individual times         ...       60.713 sec (=   1.012 min)
GTO integral calculation        ...       15.726 sec (=   0.262 min)  25.9 %
SCF iterations                  ...       21.550 sec (=   0.359 min)  35.5 %
SCF Gradient evaluation         ...       23.267 sec (=   0.388 min)  38.3 %
Geometry relaxation             ...        0.169 sec (=   0.003 min)   0.3 %
                             ****ORCA TERMINATED NORMALLY****
TOTAL RUN TIME: 0 days 0 hours 1 minutes 1 seconds 594 msec
