
                                 *****************
                                 * O   R   C   A *
                                 *****************

           --- An Ab Initio, DFT and Semiempirical electronic structure package ---

                  #######################################################
                  #                        -***-                        #
                  #          Department of theory and spectroscopy      #
                  #               Directorship: Frank Neese             #
                  #        Max Planck Institute fuer Kohlenforschung    #
                  #                Kaiser Wilhelm Platz 1               #
                  #                 D-45470 Muelheim/Ruhr               #
                  #                      Germany                        #
                  #                                                     #
                  #                  All rights reserved                #
                  #                        -***-                        #
                  #######################################################


                         Program Version 4.2.0 -  RELEASE  -


 With contributions from (in alphabetic order):
   Daniel Aravena         : Magnetic Suceptibility
   Michael Atanasov       : Ab Initio Ligand Field Theory (pilot matlab implementation)
   Alexander A. Auer      : GIAO ZORA, VPT2
   Ute Becker             : Parallelization
   Giovanni Bistoni       : ED, misc. LED, open-shell LED, HFLED
   Martin Brehm           : Molecular dynamics
   Dmytro Bykov           : SCF Hessian
   Vijay G. Chilkuri      : MRCI spin determinant printing, contributions to CSF-ICE
   Dipayan Datta          : RHF DLPNO-CCSD density
   Achintya Kumar Dutta   : EOM-CC, STEOM-CC
   Dmitry Ganyushin       : Spin-Orbit,Spin-Spin,Magnetic field MRCI
   Miquel Garcia          : C-PCM Hessian, Gaussian charge scheme
   Yang Guo               : DLPNO-NEVPT2, CIM, IAO-localization
   Andreas Hansen         : Spin unrestricted coupled pair/coupled cluster methods
   Benjamin Helmich-Paris : CASSCF linear response (MC-RPA)
   Lee Huntington         : MR-EOM, pCC
   Robert Izsak           : Overlap fitted RIJCOSX, COSX-SCS-MP3, EOM
   Christian Kollmar      : KDIIS, OOCD, Brueckner-CCSD(T), CCSD density
   Simone Kossmann        : Meta GGA functionals, TD-DFT gradient, OOMP2, MP2 Hessian
   Martin Krupicka        : AUTO-CI
   Lucas Lang             : DCDCAS
   Dagmar Lenk            : GEPOL surface, SMD
   Dimitrios Liakos       : Extrapolation schemes; Compound Job, initial MDCI parallelization
   Dimitrios Manganas     : Further ROCIS development; embedding schemes
   Dimitrios Pantazis     : SARC Basis sets
   Taras Petrenko         : DFT Hessian,TD-DFT gradient, ASA, ECA, R-Raman, ABS, FL, XAS/XES, NRVS
   Peter Pinski           : DLPNO-MP2, DLPNO-MP2 Gradient
   Christoph Reimann      : Effective Core Potentials
   Marius Retegan         : Local ZFS, SOC
   Christoph Riplinger    : Optimizer, TS searches, QM/MM, DLPNO-CCSD(T), (RO)-DLPNO pert. Triples
   Tobias Risthaus        : Range-separated hybrids, TD-DFT gradient, RPA, STAB
   Michael Roemelt        : Original ROCIS implementation
   Masaaki Saitow         : Open-shell DLPNO-CCSD energy and density
   Barbara Sandhoefer     : DKH picture change effects
   Avijit Sen             : IP-ROCIS
   Kantharuban Sivalingam : CASSCF convergence, NEVPT2, FIC-MRCI
   Bernardo de Souza      : ESD, SOC TD-DFT
   Georgi Stoychev        : AutoAux, RI-MP2 NMR
   Willem Van den Heuvel  : Paramagnetic NMR
   Boris Wezisla          : Elementary symmetry handling
   Frank Wennmohs         : Technical directorship


 We gratefully acknowledge several colleagues who have allowed us to
 interface, adapt or use parts of their codes:
   Stefan Grimme, W. Hujo, H. Kruse,             : VdW corrections, initial TS optimization,
                  C. Bannwarth                     DFT functionals, gCP, sTDA/sTD-DF
   Ed Valeev, F. Pavosevic, A. Kumar             : LibInt (2-el integral package), F12 methods
   Garnet Chan, S. Sharma, J. Yang, R. Olivares  : DMRG
   Ulf Ekstrom                                   : XCFun DFT Library
   Mihaly Kallay                                 : mrcc  (arbitrary order and MRCC methods)
   Andreas Klamt, Michael Diedenhofen            : otool_cosmo (COSMO solvation model)
   Jiri Pittner, Ondrej Demel                    : Mk-CCSD
   Frank Weinhold                                : gennbo (NPA and NBO analysis)
   Christopher J. Cramer and Donald G. Truhlar   : smd solvation model
   Lars Goerigk                                  : TD-DFT with DH, B97 family of functionals
   V. Asgeirsson, H. Jonsson                     : NEB implementation
   FAccTs GmbH                                   : IRC, NEB, NEB-TS, Multilevel, MM, QM/MM, CI optimization
   S Lehtola, MJT Oliveira, MAL Marques          : LibXC Library


 Your calculation uses the libint2 library for the computation of 2-el integrals
 For citations please refer to: http://libint.valeyev.net

 Your ORCA version has been built with support for libXC version: 4.2.3
 For citations please refer to: https://tddft.org/programs/libxc/

 This ORCA versions uses:
   CBLAS   interface :  Fast vector & matrix operations
   LAPACKE interface :  Fast linear algebra routines
   SCALAPACK package :  Parallel linear algebra routines


Your calculation utilizes the atom-pairwise dispersion correction
with the Becke-Johnson damping scheme (D3BJ)
Cite in your paper:
S.Grimme, S.Ehrlich, L.Goerigk, J Comput Chem, (2011), 32, 1456–1465 
S.Grimme, J.Antony, S.Ehrlich and H.Krieg, J.Chem.Phys., 132, (2010), 154104 
   

----- Orbital basis set information -----
Your calculation utilizes the basis: aug-cc-pVTZ 
    H, B-Ne : Obtained from the ccRepo (grant-hill.group.shef.ac.uk/ccrepo) Feb. 2017
              R. A. Kendall, T. H. Dunning, Jr., R. J. Harrison, J. Chem. Phys. 96, 6796 (1992)
         He : Obtained from the ccRepo (grant-hill.group.shef.ac.uk/ccrepo) Feb. 2017
              D. E. Woon, T. H. Dunning, Jr., J. Chem. Phys. 100, 2975 (1994)
  Li-Be, Na : Obtained from the ccRepo (grant-hill.group.shef.ac.uk/ccrepo) Feb. 2017
              B. P. Prascher, D. E. Woon, K. A. Peterson, T. H. Dunning, Jr., A. K. Wilson, Theor. Chem. Acc. 128, 69 (2011)
         Mg : Obtained from the Peterson Research Group Website (tyr0.chem.wsu.edu/~kipeters) Feb. 2017
              B. P. Prascher, D. E. Woon, K. A. Peterson, T. H. Dunning, Jr., A. K. Wilson, Theor. Chem. Acc. 128, 69 (2011)
      Al-Ar : Obtained from the ccRepo (grant-hill.group.shef.ac.uk/ccrepo) Feb. 2017
              D. E. Woon, T. H. Dunning, Jr., J. Chem. Phys. 98, 1358 (1993)
      Sc-Zn : Obtained from the ccRepo (grant-hill.group.shef.ac.uk/ccrepo) Feb. 2017
              N. B. Balabanov, K. A. Peterson, J. Chem. Phys. 123, 064107 (2005)
              N. B. Balabanov, K. A. Peterson, J. Chem. Phys. 125, 074110 (2006)
      Ga-Kr : Obtained from the ccRepo (grant-hill.group.shef.ac.uk/ccrepo) Feb. 2017
              A. K. Wilson, D. E. Woon, K. A. Peterson, T. H. Dunning, Jr., J. Chem. Phys. 110, 7667 (1999)
     Ag, Au : Obtained from the Peterson Research Group Website (tyr0.chem.wsu.edu/~kipeters) Feb. 2017
              K. A. Peterson, C. Puzzarini, Theor. Chem. Acc. 114, 283 (2005)

----- AuxJ basis set information -----
Your calculation utilizes the auxiliary basis: def2/J
   F. Weigend, Phys. Chem. Chem. Phys. 8, 1057 (2006).

================================================================================
                                        WARNINGS
                       Please study these warnings very carefully!
================================================================================


WARNING: your system is open-shell and RHF/RKS was chosen
  ===> : WILL SWITCH to UHF/UKS


WARNING: Geometry Optimization
  ===> : Switching off AutoStart
         For restart on a previous wavefunction, please use MOREAD

INFO   : the flag for use of LIBINT has been found!

================================================================================
                                       INPUT FILE
================================================================================
NAME = 10_TiBr.in
|  1> #
|  2> # 10_TiBr tpss/aug-cc-pvtz
|  3> #
|  4> ! tpss d3bj aug-cc-pvtz def2/j opt xyzfile
|  5> 
|  6> *xyz 0 4
|  7> Ti 0.0 0.0 0.0
|  8> Br 0.0 0.0 2.0
|  9> *
| 10> 
| 11> %pal
| 12> nprocs 24
| 13> end
| 14> 
| 15> 
| 16>                          ****END OF INPUT****
================================================================================

                       *****************************
                       * Geometry Optimization Run *
                       *****************************

Geometry optimization settings:
Update method            Update   .... BFGS
Choice of coordinates    CoordSys .... Z-matrix Internals
Initial Hessian          InHess   .... Almoef's Model

Convergence Tolerances:
Energy Change            TolE     ....  5.0000e-06 Eh
Max. Gradient            TolMAXG  ....  3.0000e-04 Eh/bohr
RMS Gradient             TolRMSG  ....  1.0000e-04 Eh/bohr
Max. Displacement        TolMAXD  ....  4.0000e-03 bohr
RMS Displacement         TolRMSD  ....  2.0000e-03 bohr
Strict Convergence                ....  False
------------------------------------------------------------------------------
                        ORCA OPTIMIZATION COORDINATE SETUP
------------------------------------------------------------------------------

The optimization will be done in new redundant internal coordinates
Making redundant internal coordinates   ...  (new redundants) done
Evaluating the initial hessian          ...  (Almloef) done
Evaluating the coordinates              ...  done
Calculating the B-matrix                .... done
Calculating the G-matrix                .... done
Diagonalizing the G-matrix              .... done
The first mode is                       ....    0
The number of degrees of freedom        ....    1

    -----------------------------------------------------------------
                    Redundant Internal Coordinates


    -----------------------------------------------------------------
         Definition                    Initial Value    Approx d2E/dq
    -----------------------------------------------------------------
      1. B(Br  1,Ti  0)                  2.0000         2.260171   
    -----------------------------------------------------------------

Number of atoms                         .... 2
Number of degrees of freedom            .... 1

         *************************************************************
         *                GEOMETRY OPTIMIZATION CYCLE   1            *
         *************************************************************
---------------------------------
CARTESIAN COORDINATES (ANGSTROEM)
---------------------------------
  Ti     0.000000    0.000000    0.000000
  Br     0.000000    0.000000    2.000000

----------------------------
CARTESIAN COORDINATES (A.U.)
----------------------------
  NO LB      ZA    FRAG     MASS         X           Y           Z
   0 Ti   22.0000    0    47.900    0.000000    0.000000    0.000000
   1 Br   35.0000    0    79.900    0.000000    0.000000    3.779452

--------------------------------
INTERNAL COORDINATES (ANGSTROEM)
--------------------------------
 Ti     0   0   0     0.000000000000     0.00000000     0.00000000
 Br     1   0   0     2.000000000000     0.00000000     0.00000000

---------------------------
INTERNAL COORDINATES (A.U.)
---------------------------
 Ti     0   0   0     0.000000000000     0.00000000     0.00000000
 Br     1   0   0     3.779452267843     0.00000000     0.00000000

---------------------
BASIS SET INFORMATION
---------------------
There are 2 groups of distinct atoms

 Group   1 Type Ti  : 116s77p23d3f2g contracted to 8s7p5d3f2g pattern {19191919191911/151515151511/77711/111/11}
 Group   2 Type Br  : 75s36p10d2f contracted to 7s6p4d2f pattern {18181818111/111111111/7111/11}

Atom   0Ti   basis set group =>   1
Atom   1Br   basis set group =>   2
---------------------------------
AUXILIARY/J BASIS SET INFORMATION
---------------------------------
There are 2 groups of distinct atoms

 Group   1 Type Ti  : 19s5p5d3f3g contracted to 8s5p5d2f3g pattern {121111111/11111/11111/21/111}
 Group   2 Type Br  : 19s5p5d3f1g contracted to 8s4p3d2f1g pattern {121111111/2111/311/21/1}

Atom   0Ti   basis set group =>   1
Atom   1Br   basis set group =>   2


           ************************************************************
           *        Program running with 24 parallel MPI-processes    *
           *              working on a common directory               *
           ************************************************************
------------------------------------------------------------------------------
                           ORCA GTO INTEGRAL CALCULATION
                           -- RI-GTO INTEGRALS CHOSEN --
------------------------------------------------------------------------------

                         BASIS SET STATISTICS AND STARTUP INFO

Gaussian basis set:
 # of primitive gaussian shells          ...  344
 # of primitive gaussian functions       ...  748
 # of contracted shells                  ...   44
 # of contracted basis functions         ...  152
 Highest angular momentum                ...    4
 Maximum contraction depth               ...   19
Auxiliary gaussian basis set:
 # of primitive gaussian shells          ...   68
 # of primitive gaussian functions       ...  196
 # of contracted shells                  ...   41
 # of contracted aux-basis functions     ...  147
 Highest angular momentum                ...    4
 Maximum contraction depth               ...   12
Ratio of auxiliary to basis functions    ...  0.97
Integral package used                  ... LIBINT
 One Electron integrals                  ... done
 Ordering auxiliary basis shells         ... done
 Integral threshhold             Thresh  ...  2.500e-11
 Primitive cut-off               TCut    ...  2.500e-12
 Pre-screening matrix                    ... done
 Shell pair data                         ... 
 Ordering of the shell pairs             ... done (   0.000 sec) 990 of 990 pairs
 Determination of significant pairs      ... done (   0.000 sec)
 Creation of shell pair data             ... done (   0.002 sec)
 Storage of shell pair data              ... done (   0.035 sec)
 Shell pair data done in (   0.038 sec)
 Computing two index integrals           ... done
 Cholesky decomposition of the V-matrix  ... done


Timings:
 Total evaluation time                   ...   3.897 sec (  0.065 min)
 One electron matrix time                ...   0.055 sec (  0.001 min) =  1.4%
 Schwartz matrix evaluation time         ...   3.773 sec (  0.063 min) = 96.8%
 Two index repulsion integral time       ...   0.001 sec (  0.000 min) =  0.0%
 Cholesky decomposition of V             ...   0.001 sec (  0.000 min) =  0.0%
 Three index repulsion integral time     ...   0.000 sec (  0.000 min) =  0.0%



           ************************************************************
           *        Program running with 24 parallel MPI-processes    *
           *              working on a common directory               *
           ************************************************************
-------------------------------------------------------------------------------
                                 ORCA SCF
-------------------------------------------------------------------------------

------------
SCF SETTINGS
------------
Hamiltonian:
 Density Functional     Method          .... DFT(GTOs)
 Exchange Functional    Exchange        .... TPSS
 Correlation Functional Correlation     .... TPSS
 LDA part of GGA corr.  LDAOpt          .... PW91-LDA
 Gradients option       PostSCFGGA      .... off
   Density functional embedding theory  .... OFF
   NL short-range parameter             ....  5.000000
 RI-approximation to the Coulomb term is turned on
   Number of auxiliary basis functions  .... 147


General Settings:
 Integral files         IntName         .... 10_TiBr
 Hartree-Fock type      HFTyp           .... UHF
 Total Charge           Charge          ....    0
 Multiplicity           Mult            ....    4
 Number of Electrons    NEL             ....   57
 Basis Dimension        Dim             ....  152
 Nuclear Repulsion      ENuc            ....    203.7332251955 Eh

Convergence Acceleration:
 DIIS                   CNVDIIS         .... on
   Start iteration      DIISMaxIt       ....    12
   Startup error        DIISStart       ....  0.200000
   # of expansion vecs  DIISMaxEq       ....     5
   Bias factor          DIISBfac        ....   1.050
   Max. coefficient     DIISMaxC        ....  10.000
 Newton-Raphson         CNVNR           .... off
 SOSCF                  CNVSOSCF        .... off
 Level Shifting         CNVShift        .... on
   Level shift para.    LevelShift      ....    0.2500
   Turn off err/grad.   ShiftErr        ....    0.0010
 Zerner damping         CNVZerner       .... off
 Static damping         CNVDamp         .... on
   Fraction old density DampFac         ....    0.7000
   Max. Damping (<1)    DampMax         ....    0.9800
   Min. Damping (>=0)   DampMin         ....    0.0000
   Turn off err/grad.   DampErr         ....    0.1000
 Fernandez-Rico         CNVRico         .... off

SCF Procedure:
 Maximum # iterations   MaxIter         ....   125
 SCF integral mode      SCFMode         .... Direct
   Integral package                     .... LIBINT
 Reset frequency        DirectResetFreq ....    20
 Integral Threshold     Thresh          ....  2.500e-11 Eh
 Primitive CutOff       TCut            ....  2.500e-12 Eh

Convergence Tolerance:
 Convergence Check Mode ConvCheckMode   .... Total+1el-Energy
 Convergence forced     ConvForced      .... 0
 Energy Change          TolE            ....  1.000e-08 Eh
 1-El. energy change                    ....  1.000e-05 Eh
 DIIS Error             TolErr          ....  5.000e-07


Diagonalization of the overlap matrix:
Smallest eigenvalue                        ... 3.902e-05
Time for diagonalization                   ...    0.006 sec
Threshold for overlap eigenvalues          ... 1.000e-08
Number of eigenvalues below threshold      ... 0
Time for construction of square roots      ...    0.003 sec
Total time needed                          ...    0.009 sec

-------------------
DFT GRID GENERATION
-------------------

General Integration Accuracy     IntAcc      ...  4.340
Radial Grid Type                 RadialGrid  ... Gauss-Chebyshev
Angular Grid (max. acc.)         AngularGrid ... Lebedev-110
Angular grid pruning method      GridPruning ... 3 (G Style)
Weight generation scheme         WeightScheme... Becke
Basis function cutoff            BFCut       ...    1.0000e-11
Integration weight cutoff        WCut        ...    1.0000e-14
Grids for H and He will be reduced by one unit

# of grid points (after initial pruning)     ...   5862 (   0.0 sec)
# of grid points (after weights+screening)   ...   5836 (   0.0 sec)
nearest neighbour list constructed           ...    0.0 sec
Grid point re-assignment to atoms done       ...    0.0 sec
Grid point division into batches done        ...    0.0 sec
Reduced shell lists constructed in    0.0 sec

Total number of grid points                  ...     5836
Total number of batches                      ...       93
Average number of points per batch           ...       62
Average number of grid points per atom       ...     2918
Average number of shells per batch           ...    26.00 (59.09%)
Average number of basis functions per batch  ...    86.00 (56.58%)
Average number of large shells per batch     ...    20.40 (78.46%)
Average number of large basis fcns per batch ...    70.80 (82.33%)
Maximum spatial batch extension              ...  18.98, 28.73, 16.15 au
Average spatial batch extension              ...   0.75,  1.03,  0.69 au

Time for grid setup =    0.034 sec

------------------------------
INITIAL GUESS: MODEL POTENTIAL
------------------------------
Loading Hartree-Fock densities                     ... done
Calculating cut-offs                               ... done
Setting up the integral package                    ... done
Initializing the effective Hamiltonian             ... done
Starting the Coulomb interaction                   ... done (   0.0 sec)
Reading the grid                                   ... done
Mapping shells                                     ... done
Starting the XC term evaluation                    ... done (   0.0 sec)
  promolecular density results
     # of electrons  =     56.999858741
     EX              =   -130.194085656
     EC              =     -2.621327914
     EX+EC           =   -132.815413570
Transforming the Hamiltonian                       ... done (   0.0 sec)
Diagonalizing the Hamiltonian                      ... done (   0.0 sec)
Back transforming the eigenvectors                 ... done (   0.0 sec)
Now organizing SCF variables                       ... done
                      ------------------
                      INITIAL GUESS DONE (   0.2 sec)
                      ------------------
--------------
SCF ITERATIONS
--------------
ITER       Energy         Delta-E        Max-DP      RMS-DP      [F,P]     Damp
               ***  Starting incremental Fock matrix formation  ***
  0  -3423.4165986175   0.000000000000 0.22452207  0.00340682  0.1711314 0.7000
  1  -3423.4907994971  -0.074200879578 0.06450537  0.00120379  0.0509727 0.7000
                               ***Turning on DIIS***
  2  -3423.5036936612  -0.012894164174 0.16907984  0.00287731  0.0379757 0.0000
  3  -3423.5366622876  -0.032968626376 0.04766728  0.00067363  0.0422160 0.0000
  4  -3423.5423880326  -0.005725744960 0.10002535  0.00184802  0.0409252 0.0000
  5  -3423.5466627759  -0.004274743303 0.01471881  0.00030387  0.0110303 0.0000
  6  -3423.5470466860  -0.000383910166 0.00815022  0.00013204  0.0048653 0.0000
  7  -3423.5471410701  -0.000094384048 0.00238750  0.00005313  0.0020126 0.0000
  8  -3423.5471631571  -0.000022087045 0.00505957  0.00005754  0.0008872 0.0000
  9  -3423.5471773476  -0.000014190507 0.00126293  0.00001748  0.0005606 0.0000
 10  -3423.5471782063  -0.000000858661 0.00150728  0.00001321  0.0000976 0.0000
 11  -3423.5471782971  -0.000000090783 0.00040024  0.00000371  0.0000706 0.0000
 12  -3423.5471784143  -0.000000117253 0.00007081  0.00000127  0.0000347 0.0000
 13  -3423.5471784612  -0.000000046845 0.00004018  0.00000056  0.0000117 0.0000
 14  -3423.5471783715   0.000000089692 0.00000798  0.00000017  0.0000055 0.0000
 15  -3423.5471783953  -0.000000023762 0.00000302  0.00000004  0.0000011 0.0000
                            ***DIIS convergence achieved***

               *****************************************************
               *                     SUCCESS                       *
               *           SCF CONVERGED AFTER  16 CYCLES          *
               *****************************************************

Setting up the final grid:

General Integration Accuracy     IntAcc      ...  4.670
Radial Grid Type                 RadialGrid  ... Gauss-Chebyshev
Angular Grid (max. acc.)         AngularGrid ... Lebedev-302
Angular grid pruning method      GridPruning ... 3 (G Style)
Weight generation scheme         WeightScheme... Becke
Basis function cutoff            BFCut       ...    1.0000e-11
Integration weight cutoff        WCut        ...    1.0000e-14
Grids for H and He will be reduced by one unit

# of grid points (after initial pruning)     ...  19280 (   0.0 sec)
# of grid points (after weights+screening)   ...  19251 (   0.0 sec)
nearest neighbour list constructed           ...    0.0 sec
Grid point re-assignment to atoms done       ...    0.0 sec
Grid point division into batches done        ...    0.1 sec
Reduced shell lists constructed in    0.1 sec

Total number of grid points                  ...    19251
Total number of batches                      ...      302
Average number of points per batch           ...       63
Average number of grid points per atom       ...     9626
Average number of shells per batch           ...    24.14 (54.87%)
Average number of basis functions per batch  ...    73.00 (48.03%)
Average number of large shells per batch     ...    14.79 (61.24%)
Average number of large basis fcns per batch ...    41.36 (56.65%)
Maximum spatial batch extension              ...  24.49, 24.19, 17.58 au
Average spatial batch extension              ...   0.85,  0.84,  0.66 au

Final grid set up in    0.2 sec
Final integration                            ... done (   0.1 sec)
Change in XC energy                          ...    -0.004682241
Integrated number of electrons               ...    57.000011154
Previous integrated no of electrons          ...    56.999696296

----------------
TOTAL SCF ENERGY
----------------

Total Energy       :        -3423.55186066 Eh          -93159.58227 eV

Components:
Nuclear Repulsion  :          203.73322520 Eh            5543.86290 eV
Electronic Energy  :        -3627.28508585 Eh          -98703.44517 eV
One Electron Energy:        -5154.50939415 Eh         -140261.33136 eV
Two Electron Energy:         1527.22430829 Eh           41557.88619 eV

Virial components:
Potential Energy   :        -6842.40529376 Eh         -186191.31383 eV
Kinetic Energy     :         3418.85343310 Eh           93031.73156 eV
Virial Ratio       :            2.00137427


DFT components:
N(Alpha)           :       30.000005770948 electrons
N(Beta)            :       27.000005382558 electrons
N(Total)           :       57.000011153505 electrons
E(X)               :     -130.879893952435 Eh       
E(C)               :       -2.626644840544 Eh       
E(XC)              :     -133.506538792980 Eh       
DFET-embed. en.    :        0.000000000000 Eh       

---------------
SCF CONVERGENCE
---------------

  Last Energy change         ...   -2.2270e-08  Tolerance :   1.0000e-08
  Last MAX-Density change    ...    2.9731e-06  Tolerance :   1.0000e-07
  Last RMS-Density change    ...    3.7247e-08  Tolerance :   5.0000e-09
  Last DIIS Error            ...    5.8963e-07  Tolerance :   5.0000e-07

             **** THE GBW FILE WAS UPDATED (10_TiBr.gbw) ****
             **** DENSITY FILE WAS UPDATED (10_TiBr.scfp) ****
             **** ENERGY FILE WAS UPDATED (10_TiBr.en.tmp) ****
----------------------
UHF SPIN CONTAMINATION
----------------------

Warning: in a DFT calculation there is little theoretical justification to 
         calculate <S**2> as in Hartree-Fock theory. We will do it anyways
         but you should keep in mind that the values have only limited relevance

Expectation value of <S**2>     :     3.759036
Ideal value S*(S+1) for S=1.5   :     3.750000
Deviation                       :     0.009036

             **** THE GBW FILE WAS UPDATED (10_TiBr.gbw) ****
             **** DENSITY FILE WAS UPDATED (10_TiBr.scfp) ****
----------------
ORBITAL ENERGIES
----------------
                 SPIN UP ORBITALS
  NO   OCC          E(Eh)            E(eV) 
   0   1.0000    -481.724700    -13108.3955 
   1   1.0000    -178.077038     -4845.7225 
   2   1.0000     -61.941520     -1685.5144 
   3   1.0000     -55.774029     -1517.6885 
   4   1.0000     -55.774029     -1517.6885 
   5   1.0000     -55.773853     -1517.6837 
   6   1.0000     -19.472641      -529.8775 
   7   1.0000     -16.209702      -441.0884 
   8   1.0000     -16.198319      -440.7787 
   9   1.0000     -16.198319      -440.7787 
  10   1.0000      -8.470847      -230.5035 
  11   1.0000      -6.307816      -171.6444 
  12   1.0000      -6.307816      -171.6444 
  13   1.0000      -6.307314      -171.6307 
  14   1.0000      -2.478614       -67.4465 
  15   1.0000      -2.477537       -67.4172 
  16   1.0000      -2.477198       -67.4080 
  17   1.0000      -2.477198       -67.4080 
  18   1.0000      -2.477050       -67.4040 
  19   1.0000      -2.212247       -60.1983 
  20   1.0000      -1.381076       -37.5810 
  21   1.0000      -1.346785       -36.6479 
  22   1.0000      -1.346785       -36.6479 
  23   1.0000      -0.700247       -19.0547 
  24   1.0000      -0.302575        -8.2335 
  25   1.0000      -0.291454        -7.9309 
  26   1.0000      -0.291454        -7.9309 
  27   1.0000      -0.147226        -4.0062 
  28   1.0000      -0.099175        -2.6987 
  29   1.0000      -0.098999        -2.6939 
  30   0.0000      -0.082887        -2.2555 
  31   0.0000      -0.082887        -2.2555 
  32   0.0000      -0.075055        -2.0424 
  33   0.0000      -0.025803        -0.7021 
  34   0.0000      -0.025803        -0.7021 
  35   0.0000      -0.000609        -0.0166 
  36   0.0000       0.002795         0.0760 
  37   0.0000       0.019204         0.5226 
  38   0.0000       0.019204         0.5226 
  39   0.0000       0.026350         0.7170 
  40   0.0000       0.026522         0.7217 
  41   0.0000       0.028671         0.7802 
  42   0.0000       0.028956         0.7879 
  43   0.0000       0.028956         0.7879 
  44   0.0000       0.051062         1.3895 
  45   0.0000       0.082357         2.2410 
  46   0.0000       0.094703         2.5770 
  47   0.0000       0.094703         2.5770 
  48   0.0000       0.096883         2.6363 
  49   0.0000       0.121576         3.3083 
  50   0.0000       0.121576         3.3083 
  51   0.0000       0.122706         3.3390 
  52   0.0000       0.122758         3.3404 
  53   0.0000       0.132671         3.6102 
  54   0.0000       0.135450         3.6858 
  55   0.0000       0.135450         3.6858 
  56   0.0000       0.176023         4.7898 
  57   0.0000       0.177640         4.8338 
  58   0.0000       0.177771         4.8374 
  59   0.0000       0.231070         6.2877 
  60   0.0000       0.231070         6.2877 
  61   0.0000       0.257631         7.0105 
  62   0.0000       0.279140         7.5958 
  63   0.0000       0.279140         7.5958 
  64   0.0000       0.280103         7.6220 
  65   0.0000       0.302254         8.2248 
  66   0.0000       0.302254         8.2248 
  67   0.0000       0.307930         8.3792 
  68   0.0000       0.309307         8.4167 
  69   0.0000       0.370394        10.0789 
  70   0.0000       0.405251        11.0274 
  71   0.0000       0.462638        12.5890 
  72   0.0000       0.462638        12.5890 
  73   0.0000       0.497287        13.5319 
  74   0.0000       0.497287        13.5319 
  75   0.0000       0.499048        13.5798 
  76   0.0000       0.499119        13.5817 
  77   0.0000       0.595763        16.2115 
  78   0.0000       0.596163        16.2224 
  79   0.0000       0.604726        16.4554 
  80   0.0000       0.621330        16.9072 
  81   0.0000       0.635429        17.2909 
  82   0.0000       0.635429        17.2909 
  83   0.0000       0.672054        18.2875 
  84   0.0000       0.709413        19.3041 
  85   0.0000       0.709413        19.3041 
  86   0.0000       0.733509        19.9598 
  87   0.0000       0.733509        19.9598 
  88   0.0000       0.823605        22.4114 
  89   0.0000       0.823794        22.4166 
  90   0.0000       0.827597        22.5201 
  91   0.0000       0.873297        23.7636 
  92   0.0000       0.873524        23.7698 
  93   0.0000       0.891104        24.2482 
  94   0.0000       0.891104        24.2482 
  95   0.0000       0.893050        24.3011 
  96   0.0000       0.893050        24.3011 
  97   0.0000       0.944928        25.7128 
  98   0.0000       0.945389        25.7253 
  99   0.0000       0.990093        26.9418 
 100   0.0000       0.991880        26.9904 
 101   0.0000       0.991880        26.9904 
 102   0.0000       1.120321        30.4855 
 103   0.0000       1.129975        30.7482 
 104   0.0000       1.129975        30.7482 
 105   0.0000       1.272626        34.6299 
 106   0.0000       1.272813        34.6350 
 107   0.0000       1.458905        39.6988 
 108   0.0000       1.495338        40.6902 
 109   0.0000       1.495338        40.6902 
 110   0.0000       1.790642        48.7258 
 111   0.0000       1.829541        49.7843 
 112   0.0000       1.829541        49.7843 
 113   0.0000       1.949979        53.0616 
 114   0.0000       1.959953        53.3330 
 115   0.0000       1.959953        53.3330 
 116   0.0000       1.969766        53.6001 
 117   0.0000       1.977172        53.8016 
 118   0.0000       2.013985        54.8033 
 119   0.0000       2.013985        54.8033 
 120   0.0000       2.032685        55.3122 
 121   0.0000       2.034916        55.3729 
 122   0.0000       2.082420        56.6655 
 123   0.0000       2.095553        57.0229 
 124   0.0000       2.095553        57.0229 
 125   0.0000       2.117858        57.6298 
 126   0.0000       2.118482        57.6468 
 127   0.0000       2.149201        58.4827 
 128   0.0000       2.149201        58.4827 
 129   0.0000       2.186252        59.4909 
 130   0.0000       2.355852        64.1060 
 131   0.0000       2.433230        66.2116 
 132   0.0000       2.433230        66.2116 
 133   0.0000       2.548810        69.3567 
 134   0.0000       3.219107        87.5964 
 135   0.0000       3.226458        87.7964 
 136   0.0000       3.228977        87.8649 
 137   0.0000       3.228977        87.8649 
 138   0.0000       3.262105        88.7664 
 139   0.0000       3.262878        88.7874 
 140   0.0000       3.402821        92.5955 
 141   0.0000       3.402821        92.5955 
 142   0.0000       3.405741        92.6749 
 143   0.0000       3.417446        92.9934 
 144   0.0000       3.417446        92.9934 
 145   0.0000       3.476240        94.5933 
 146   0.0000       3.479946        94.6941 
 147   0.0000       3.706396       100.8561 
 148   0.0000       3.706396       100.8561 
 149   0.0000       3.787170       103.0541 
 150   0.0000       4.064465       110.5997 
 151   0.0000       5.127854       139.5360 

                 SPIN DOWN ORBITALS
  NO   OCC          E(Eh)            E(eV) 
   0   1.0000    -481.724946    -13108.4022 
   1   1.0000    -178.076680     -4845.7128 
   2   1.0000     -61.941552     -1685.5153 
   3   1.0000     -55.774187     -1517.6928 
   4   1.0000     -55.774187     -1517.6928 
   5   1.0000     -55.774063     -1517.6894 
   6   1.0000     -19.452734      -529.3358 
   7   1.0000     -16.200894      -440.8488 
   8   1.0000     -16.178731      -440.2456 
   9   1.0000     -16.178731      -440.2456 
  10   1.0000      -8.471130      -230.5112 
  11   1.0000      -6.308154      -171.6536 
  12   1.0000      -6.308154      -171.6536 
  13   1.0000      -6.307616      -171.6389 
  14   1.0000      -2.478927       -67.4550 
  15   1.0000      -2.477962       -67.4288 
  16   1.0000      -2.477613       -67.4193 
  17   1.0000      -2.477613       -67.4193 
  18   1.0000      -2.477474       -67.4155 
  19   1.0000      -2.147498       -58.4364 
  20   1.0000      -1.342579       -36.5334 
  21   1.0000      -1.264621       -34.4121 
  22   1.0000      -1.264621       -34.4121 
  23   1.0000      -0.700690       -19.0667 
  24   1.0000      -0.294974        -8.0266 
  25   1.0000      -0.288194        -7.8421 
  26   1.0000      -0.288194        -7.8421 
  27   0.0000      -0.085784        -2.3343 
  28   0.0000      -0.048573        -1.3217 
  29   0.0000      -0.048573        -1.3217 
  30   0.0000      -0.044459        -1.2098 
  31   0.0000      -0.014585        -0.3969 
  32   0.0000      -0.014465        -0.3936 
  33   0.0000       0.006984         0.1900 
  34   0.0000       0.006984         0.1900 
  35   0.0000       0.008149         0.2217 
  36   0.0000       0.017722         0.4822 
  37   0.0000       0.033938         0.9235 
  38   0.0000       0.033938         0.9235 
  39   0.0000       0.042639         1.1603 
  40   0.0000       0.044290         1.2052 
  41   0.0000       0.044290         1.2052 
  42   0.0000       0.048133         1.3098 
  43   0.0000       0.048158         1.3105 
  44   0.0000       0.059603         1.6219 
  45   0.0000       0.100574         2.7368 
  46   0.0000       0.100574         2.7368 
  47   0.0000       0.101095         2.7509 
  48   0.0000       0.112561         3.0629 
  49   0.0000       0.149346         4.0639 
  50   0.0000       0.149346         4.0639 
  51   0.0000       0.149798         4.0762 
  52   0.0000       0.149905         4.0791 
  53   0.0000       0.153865         4.1869 
  54   0.0000       0.161268         4.3883 
  55   0.0000       0.161268         4.3883 
  56   0.0000       0.189509         5.1568 
  57   0.0000       0.195788         5.3277 
  58   0.0000       0.195952         5.3321 
  59   0.0000       0.262321         7.1381 
  60   0.0000       0.262321         7.1381 
  61   0.0000       0.272018         7.4020 
  62   0.0000       0.288572         7.8525 
  63   0.0000       0.288572         7.8525 
  64   0.0000       0.297078         8.0839 
  65   0.0000       0.320469         8.7204 
  66   0.0000       0.320469         8.7204 
  67   0.0000       0.328569         8.9408 
  68   0.0000       0.329134         8.9562 
  69   0.0000       0.396754        10.7962 
  70   0.0000       0.430687        11.7196 
  71   0.0000       0.474654        12.9160 
  72   0.0000       0.474654        12.9160 
  73   0.0000       0.531360        14.4590 
  74   0.0000       0.531360        14.4590 
  75   0.0000       0.541849        14.7445 
  76   0.0000       0.541993        14.7484 
  77   0.0000       0.608036        16.5455 
  78   0.0000       0.608452        16.5568 
  79   0.0000       0.609644        16.5893 
  80   0.0000       0.627274        17.0690 
  81   0.0000       0.653351        17.7786 
  82   0.0000       0.653351        17.7786 
  83   0.0000       0.693776        18.8786 
  84   0.0000       0.736844        20.0505 
  85   0.0000       0.736844        20.0505 
  86   0.0000       0.742820        20.2132 
  87   0.0000       0.742820        20.2132 
  88   0.0000       0.839024        22.8310 
  89   0.0000       0.839529        22.8447 
  90   0.0000       0.851373        23.1670 
  91   0.0000       0.899145        24.4670 
  92   0.0000       0.899145        24.4670 
  93   0.0000       0.905998        24.6535 
  94   0.0000       0.906380        24.6638 
  95   0.0000       0.950144        25.8547 
  96   0.0000       0.950144        25.8547 
  97   0.0000       0.962147        26.1813 
  98   0.0000       0.962608        26.1939 
  99   0.0000       1.008129        27.4326 
 100   0.0000       1.022773        27.8311 
 101   0.0000       1.022773        27.8311 
 102   0.0000       1.127708        30.6865 
 103   0.0000       1.139383        31.0042 
 104   0.0000       1.139383        31.0042 
 105   0.0000       1.295425        35.2503 
 106   0.0000       1.295659        35.2567 
 107   0.0000       1.476732        40.1839 
 108   0.0000       1.508398        41.0456 
 109   0.0000       1.508398        41.0456 
 110   0.0000       1.820231        49.5310 
 111   0.0000       1.867615        50.8204 
 112   0.0000       1.867615        50.8204 
 113   0.0000       1.955846        53.2213 
 114   0.0000       1.972088        53.6632 
 115   0.0000       1.978516        53.8382 
 116   0.0000       1.978516        53.8382 
 117   0.0000       1.979601        53.8677 
 118   0.0000       2.011757        54.7427 
 119   0.0000       2.011757        54.7427 
 120   0.0000       2.044466        55.6328 
 121   0.0000       2.046264        55.6817 
 122   0.0000       2.098747        57.1098 
 123   0.0000       2.104101        57.2555 
 124   0.0000       2.104101        57.2555 
 125   0.0000       2.170856        59.0720 
 126   0.0000       2.170856        59.0720 
 127   0.0000       2.178877        59.2903 
 128   0.0000       2.179521        59.3078 
 129   0.0000       2.198704        59.8298 
 130   0.0000       2.407465        65.5105 
 131   0.0000       2.462520        67.0086 
 132   0.0000       2.462520        67.0086 
 133   0.0000       2.580567        70.2208 
 134   0.0000       3.278411        89.2101 
 135   0.0000       3.278411        89.2101 
 136   0.0000       3.295087        89.6639 
 137   0.0000       3.297758        89.7366 
 138   0.0000       3.298342        89.7524 
 139   0.0000       3.300241        89.8041 
 140   0.0000       3.436950        93.5242 
 141   0.0000       3.439422        93.5914 
 142   0.0000       3.439422        93.5914 
 143   0.0000       3.509030        95.4856 
 144   0.0000       3.509030        95.4856 
 145   0.0000       3.526401        95.9583 
 146   0.0000       3.530089        96.0586 
 147   0.0000       3.754654       102.1693 
 148   0.0000       3.754654       102.1693 
 149   0.0000       3.834330       104.3374 
 150   0.0000       4.089237       111.2738 
 151   0.0000       5.133495       139.6895 

                    ********************************
                    * MULLIKEN POPULATION ANALYSIS *
                    ********************************

--------------------------------------------
MULLIKEN ATOMIC CHARGES AND SPIN POPULATIONS
--------------------------------------------
   0 Ti:   -0.206708    3.041344
   1 Br:    0.206708   -0.041344
Sum of atomic charges         :    0.0000000
Sum of atomic spin populations:    3.0000000

-----------------------------------------------------
MULLIKEN REDUCED ORBITAL CHARGES AND SPIN POPULATIONS
-----------------------------------------------------
CHARGE
  0 Tis       :     6.826979  s :     6.826979
      pz      :     4.093760  p :    12.223253
      px      :     4.064747
      py      :     4.064747
      dz2     :     0.671208  d :     3.094079
      dxz     :     0.222834
      dyz     :     0.222834
      dx2y2   :     0.988638
      dxy     :     0.988566
      f0      :     0.003939  f :     0.050445
      f+1     :     0.023333
      f-1     :     0.023333
      f+2     :    -0.000078
      f-2     :    -0.000081
      f+3     :     0.000000
      f-3     :     0.000000
      g0      :     0.001012  g :     0.011951
      g+1     :     0.005462
      g-1     :     0.005462
      g+2     :     0.000007
      g-2     :     0.000009
      g+3     :    -0.000000
      g-3     :    -0.000000
      g+4     :     0.000000
      g-4     :     0.000000
  1 Brs       :     7.940022  s :     7.940022
      pz      :     5.456723  p :    16.829674
      px      :     5.686476
      py      :     5.686476
      dz2     :     2.003771  d :    10.020020
      dxz     :     1.998259
      dyz     :     1.998259
      dx2y2   :     2.009845
      dxy     :     2.009886
      f0      :     0.002588  f :     0.003577
      f+1     :    -0.001109
      f-1     :    -0.001109
      f+2     :     0.001588
      f-2     :     0.001620
      f+3     :     0.000000
      f-3     :     0.000000

SPIN
  0 Tis       :     0.579670  s :     0.579670
      pz      :     0.004152  p :     0.024109
      px      :     0.009979
      py      :     0.009979
      dz2     :     0.398221  d :     2.441481
      dxz     :     0.033032
      dyz     :     0.033032
      dx2y2   :     0.988635
      dxy     :     0.988562
      f0      :    -0.000724  f :    -0.001419
      f+1     :    -0.000254
      f-1     :    -0.000254
      f+2     :    -0.000091
      f-2     :    -0.000095
      f+3     :    -0.000000
      f-3     :    -0.000000
      g0      :     0.000093  g :    -0.002498
      g+1     :    -0.001278
      g-1     :    -0.001278
      g+2     :    -0.000017
      g-2     :    -0.000019
      g+3     :     0.000000
      g-3     :     0.000000
      g+4     :     0.000000
      g-4     :     0.000000
  1 Brs       :     0.019647  s :     0.019647
      pz      :    -0.006737  p :    -0.093110
      px      :    -0.043187
      py      :    -0.043187
      dz2     :     0.003802  d :     0.026208
      dxz     :     0.001295
      dyz     :     0.001295
      dx2y2   :     0.009885
      dxy     :     0.009932
      f0      :     0.001876  f :     0.005910
      f+1     :     0.000414
      f-1     :     0.000414
      f+2     :     0.001588
      f-2     :     0.001620
      f+3     :     0.000000
      f-3     :     0.000000


                     *******************************
                     * LOEWDIN POPULATION ANALYSIS *
                     *******************************

-------------------------------------------
LOEWDIN ATOMIC CHARGES AND SPIN POPULATIONS
-------------------------------------------
   0 Ti:   -0.466751    2.831629
   1 Br:    0.466751    0.168371

----------------------------------------------------
LOEWDIN REDUCED ORBITAL CHARGES AND SPIN POPULATIONS
----------------------------------------------------
CHARGE
  0 Tis       :     6.381180  s :     6.381180
      pz      :     4.177960  p :    12.153132
      px      :     3.987586
      py      :     3.987586
      dz2     :     0.856619  d :     3.363860
      dxz     :     0.303114
      dyz     :     0.303114
      dx2y2   :     0.950500
      dxy     :     0.950514
      f0      :     0.144961  f :     0.384765
      f+1     :     0.118826
      f-1     :     0.118826
      f+2     :     0.001071
      f-2     :     0.001081
      f+3     :     0.000000
      f-3     :     0.000000
      g0      :     0.052138  g :     0.183813
      g+1     :     0.065082
      g-1     :     0.065082
      g+2     :     0.000756
      g-2     :     0.000755
      g+3     :     0.000000
      g-3     :     0.000000
      g+4     :     0.000000
      g-4     :     0.000000
  1 Brs       :     7.419226  s :     7.419226
      pz      :     5.645577  p :    16.521562
      px      :     5.437992
      py      :     5.437992
      dz2     :     2.208487  d :    10.362425
      dxz     :     2.047116
      dyz     :     2.047116
      dx2y2   :     2.029867
      dxy     :     2.029839
      f0      :     0.113853  f :     0.230037
      f+1     :     0.040284
      f-1     :     0.040284
      f+2     :     0.017806
      f-2     :     0.017811
      f+3     :     0.000000
      f-3     :     0.000000

SPIN
  0 Tis       :     0.504471  s :     0.504471
      pz      :     0.008899  p :     0.019852
      px      :     0.005477
      py      :     0.005477
      dz2     :     0.378942  d :     2.322814
      dxz     :     0.021438
      dyz     :     0.021438
      dx2y2   :     0.950490
      dxy     :     0.950505
      f0      :    -0.001626  f :    -0.009974
      f+1     :    -0.005175
      f-1     :    -0.005175
      f+2     :     0.000996
      f-2     :     0.001006
      f+3     :    -0.000000
      f-3     :    -0.000000
      g0      :    -0.000061  g :    -0.005533
      g+1     :    -0.003097
      g-1     :    -0.003097
      g+2     :     0.000362
      g-2     :     0.000360
      g+3     :     0.000000
      g-3     :     0.000000
      g+4     :     0.000000
      g-4     :     0.000000
  1 Brs       :     0.044848  s :     0.044848
      pz      :     0.052377  p :     0.011574
      px      :    -0.020402
      py      :    -0.020402
      dz2     :     0.007660  d :     0.071006
      dxz     :     0.001340
      dyz     :     0.001340
      dx2y2   :     0.030347
      dxy     :     0.030318
      f0      :     0.004488  f :     0.040943
      f+1     :     0.000419
      f-1     :     0.000419
      f+2     :     0.017806
      f-2     :     0.017811
      f+3     :     0.000000
      f-3     :     0.000000


                      *****************************
                      * MAYER POPULATION ANALYSIS *
                      *****************************

  NA   - Mulliken gross atomic population
  ZA   - Total nuclear charge
  QA   - Mulliken gross atomic charge
  VA   - Mayer's total valence
  BVA  - Mayer's bonded valence
  FA   - Mayer's free valence

  ATOM       NA         ZA         QA         VA         BVA        FA
  0 Ti    22.2067    22.0000    -0.2067     4.8575     2.0322     2.8254
  1 Br    34.7933    35.0000     0.2067     2.0413     2.0322     0.0091

  Mayer bond orders larger than 0.100000
B(  0-Ti,  1-Br) :   2.0322 

-------
TIMINGS
-------

Total SCF time: 0 days 0 hours 0 min 3 sec 

Total time                  ....       3.654 sec
Sum of individual times     ....       3.499 sec  ( 95.8%)

Fock matrix formation       ....       3.042 sec  ( 83.2%)
  Split-RI-J                ....       2.518 sec  ( 82.8% of F)
  XC integration            ....       0.401 sec  ( 13.2% of F)
    Basis function eval.    ....       0.043 sec  ( 10.8% of XC)
    Density eval.           ....       0.055 sec  ( 13.6% of XC)
    XC-Functional eval.     ....       0.009 sec  (  2.4% of XC)
    XC-Potential eval.      ....       0.140 sec  ( 34.8% of XC)
Diagonalization             ....       0.088 sec  (  2.4%)
Density matrix formation    ....       0.012 sec  (  0.3%)
Population analysis         ....       0.007 sec  (  0.2%)
Initial guess               ....       0.131 sec  (  3.6%)
Orbital Transformation      ....       0.000 sec  (  0.0%)
Orbital Orthonormalization  ....       0.000 sec  (  0.0%)
DIIS solution               ....       0.033 sec  (  0.9%)
Grid generation             ....       0.187 sec  (  5.1%)


-------------------------------------------------------------------------------
                          DFT DISPERSION CORRECTION                            
                                                                               
                              DFTD3 V3.1  Rev 1                                
                          USING Becke-Johnson damping                          
-------------------------------------------------------------------------------
The TPSS functional is recognized
Active option DFTDOPT                   ...         4   

molecular C6(AA) [au] = 1153.078096 


            DFT-D V3
 parameters
 s6 scaling factor         :     1.0000 
 a1 scaling factor         :     0.4535 
 s8 scaling factor         :     1.9435 
 a2 scaling factor         :     4.4752 
 ad hoc parameters k1-k3   :    16.0000     1.3333    -4.0000 

 Edisp/kcal,au: -1.216315392062  -0.001938321751 
 E6   /kcal   :  -0.375620241 
 E8   /kcal   :  -0.840695151 
 % E8         :  69.118187350 

-------------------------   ----------------
Dispersion correction           -0.001938322
-------------------------   ----------------


-------------------------   --------------------
FINAL SINGLE POINT ENERGY     -3423.553798980274
-------------------------   --------------------



           ************************************************************
           *        Program running with 24 parallel MPI-processes    *
           *              working on a common directory               *
           ************************************************************
------------------------------------------------------------------------------
                         ORCA SCF GRADIENT CALCULATION
------------------------------------------------------------------------------

Gradient of the Kohn-Sham DFT energy:
Kohn-Sham wavefunction type      ... UKS
Hartree-Fock exchange scaling    ...    0.000
Number of operators              ...    2
Number of atoms                  ...    2
Basis set dimensions             ...  152
Integral neglect threshold       ... 2.5e-11
Integral primitive cutoff        ... 2.5e-12

Nuclear repulsion gradient       ... done
One Electron Gradient            ... done
Pre-screening matrix             ... done
RI-J gradient                    ... done
Exchange-correlation gradient    ... done
Dispersion correction            ... done

------------------
CARTESIAN GRADIENT
------------------

   1   Ti  :   -0.000000005    0.000000004    0.182128390
   2   Br  :    0.000000015    0.000000001   -0.180831556

Difference to translation invariance:
           :    0.0000000100    0.0000000046    0.0012968341

Norm of the cartesian gradient     ...    0.2566530774
RMS gradient                       ...    0.1047781801
MAX gradient                       ...    0.1821283901

-------
TIMINGS
-------

Total SCF gradient time            ...        4.717 sec

One electron gradient       ....       0.058 sec  (  1.2%)
Prescreening matrices       ....       3.705 sec  ( 78.5%)
RI-J Coulomb gradient       ....       0.313 sec  (  6.6%)
XC gradient                 ....       0.089 sec  (  1.9%)
------------------------------------------------------------------------------
                         ORCA GEOMETRY RELAXATION STEP
------------------------------------------------------------------------------

Reading the OPT-File                    .... done
Getting information on internals        .... done
Copying old internal coords+grads       .... done
Making the new internal coordinates     .... (new redundants).... done
Validating the new internal coordinates .... (new redundants).... done
Calculating the B-matrix                .... done
Calculating the G,G- and P matrices     .... done
Transforming gradient to internals      .... done
Projecting the internal gradient        .... done
Number of atoms                         ....   2
Number of internal coordinates          ....   1
Current Energy                          .... -3423.553798980 Eh
Current gradient norm                   ....     0.256653077 Eh/bohr
Maximum allowed component of the step   ....  0.300
Current trust radius                    ....  0.300
Evaluating the initial hessian          ....  (Almloef) done
Projecting the Hessian                  .... done
Forming the augmented Hessian           .... done
Diagonalizing the augmented Hessian     .... done
Last element of RFO vector              ....  0.996832395
Lowest eigenvalues of augmented Hessian:
 -0.014479144
Length of the computed step             ....  0.079783700
The final length of the internal step   ....  0.079783700
Converting the step to cartesian space:
 Initial RMS(Int)=    0.0797837004
Transforming coordinates:
 Iter   0:  RMS(Cart)=    0.0230315705 RMS(Int)=    0.0797837004
 Iter   1:  RMS(Cart)=    0.0000000000 RMS(Int)=    0.0000000000
done
Storing new coordinates                 .... done

                                .--------------------.
          ----------------------|Geometry convergence|-------------------------
          Item                value                   Tolerance       Converged
          ---------------------------------------------------------------------
          RMS gradient        0.1814799731            0.0001000000      NO
          MAX gradient        0.1814799731            0.0003000000      NO
          RMS step            0.0797837004            0.0020000000      NO
          MAX step            0.0797837004            0.0040000000      NO
          ........................................................
          Max(Bonds)      0.0422      Max(Angles)    0.00
          Max(Dihed)        0.00      Max(Improp)    0.00
          ---------------------------------------------------------------------

The optimization has not yet converged - more geometry cycles are needed


    ---------------------------------------------------------------------------
                         Redundant Internal Coordinates
                            (Angstroem and degrees)

        Definition                    Value    dE/dq     Step     New-Value
    ----------------------------------------------------------------------------
     1. B(Br  1,Ti  0)                2.0000 -0.181480  0.0422    2.0422   
    ----------------------------------------------------------------------------

         *************************************************************
         *                GEOMETRY OPTIMIZATION CYCLE   2            *
         *************************************************************
---------------------------------
CARTESIAN COORDINATES (ANGSTROEM)
---------------------------------
  Ti     0.000000    0.000000   -0.021110
  Br     0.000000    0.000000    2.021110

----------------------------
CARTESIAN COORDINATES (A.U.)
----------------------------
  NO LB      ZA    FRAG     MASS         X           Y           Z
   0 Ti   22.0000    0    47.900    0.000000    0.000000   -0.039892
   1 Br   35.0000    0    79.900    0.000000    0.000000    3.819344

--------------------------------
INTERNAL COORDINATES (ANGSTROEM)
--------------------------------
 Ti     0   0   0     0.000000000000     0.00000000     0.00000000
 Br     1   0   0     2.042219715849     0.00000000     0.00000000

---------------------------
INTERNAL COORDINATES (A.U.)
---------------------------
 Ti     0   0   0     0.000000000000     0.00000000     0.00000000
 Br     1   0   0     3.859235968249     0.00000000     0.00000000



           ************************************************************
           *        Program running with 24 parallel MPI-processes    *
           *              working on a common directory               *
           ************************************************************
 One Electron integrals                  ... done
 Pre-screening matrix                    ... done


           ************************************************************
           *        Program running with 24 parallel MPI-processes    *
           *              working on a common directory               *
           ************************************************************

Diagonalization of the overlap matrix:
Smallest eigenvalue                        ... 3.978e-05
Time for diagonalization                   ...    0.006 sec
Threshold for overlap eigenvalues          ... 1.000e-08
Number of eigenvalues below threshold      ... 0
Time for construction of square roots      ...    0.003 sec
Total time needed                          ...    0.009 sec

-------------------
DFT GRID GENERATION
-------------------

General Integration Accuracy     IntAcc      ...  4.340
Radial Grid Type                 RadialGrid  ... Gauss-Chebyshev
Angular Grid (max. acc.)         AngularGrid ... Lebedev-110
Angular grid pruning method      GridPruning ... 3 (G Style)
Weight generation scheme         WeightScheme... Becke
Basis function cutoff            BFCut       ...    1.0000e-11
Integration weight cutoff        WCut        ...    1.0000e-14
Grids for H and He will be reduced by one unit

# of grid points (after initial pruning)     ...   5862 (   0.0 sec)
# of grid points (after weights+screening)   ...   5836 (   0.0 sec)
nearest neighbour list constructed           ...    0.0 sec
Grid point re-assignment to atoms done       ...    0.0 sec
Grid point division into batches done        ...    0.0 sec
Reduced shell lists constructed in    0.0 sec

Total number of grid points                  ...     5836
Total number of batches                      ...       92
Average number of points per batch           ...       63
Average number of grid points per atom       ...     2918
Average number of shells per batch           ...    26.40 (60.00%)
Average number of basis functions per batch  ...    87.20 (57.37%)
Average number of large shells per batch     ...    20.80 (78.79%)
Average number of large basis fcns per batch ...    73.60 (84.40%)
Maximum spatial batch extension              ...  18.98, 28.73, 16.15 au
Average spatial batch extension              ...   0.76,  1.04,  0.70 au

Time for grid setup =    0.027 sec

--------------
SCF ITERATIONS
--------------
ITER       Energy         Delta-E        Max-DP      RMS-DP      [F,P]     Damp
               ***  Starting incremental Fock matrix formation  ***
  0  -3423.5599105391   0.000000000000 0.00342075  0.00008084  0.0278141 0.7000
  1  -3423.5600530267  -0.000142487515 0.00298092  0.00007006  0.0194556 0.7000
                               ***Turning on DIIS***
  2  -3423.5601461752  -0.000093148513 0.00697435  0.00016757  0.0136071 0.0000
  3  -3423.5603519728  -0.000205797619 0.00602299  0.00010087  0.0019313 0.0000
  4  -3423.5603575220  -0.000005549246 0.00221967  0.00003979  0.0014030 0.0000
  5  -3423.5603648337  -0.000007311660 0.00248613  0.00004669  0.0003836 0.0000
  6  -3423.5603656445  -0.000000810750 0.00061975  0.00000900  0.0002185 0.0000
  7  -3423.5603657562  -0.000000111765 0.00022099  0.00000325  0.0001675 0.0000
  8  -3423.5603659042  -0.000000147988 0.00010663  0.00000105  0.0000202 0.0000
  9  -3423.5603658825   0.000000021715 0.00004109  0.00000055  0.0000085 0.0000
 10  -3423.5603658855  -0.000000003054 0.00006929  0.00000067  0.0000021 0.0000
 11  -3423.5603658884  -0.000000002897 0.00001794  0.00000017  0.0000035 0.0000
 12  -3423.5603658632   0.000000025249 0.00002701  0.00000026  0.0000040 0.0000
 13  -3423.5603658735  -0.000000010295 0.00002525  0.00000025  0.0000033 0.0000
 14  -3423.5603658879  -0.000000014389 0.00000609  0.00000007  0.0000039 0.0000
 15  -3423.5603659327  -0.000000044778 0.00009342  0.00000089  0.0000041 0.0000
 16  -3423.5603658874   0.000000045258 0.00001194  0.00000013  0.0000065 0.0000
 17  -3423.5603658821   0.000000005340 0.00001069  0.00000011  0.0000062 0.0000
 18  -3423.5603659222  -0.000000040189 0.00000181  0.00000004  0.0000066 0.0000
                 **** Energy Check signals convergence ****

               *****************************************************
               *                     SUCCESS                       *
               *           SCF CONVERGED AFTER  19 CYCLES          *
               *****************************************************

Setting up the final grid:

General Integration Accuracy     IntAcc      ...  4.670
Radial Grid Type                 RadialGrid  ... Gauss-Chebyshev
Angular Grid (max. acc.)         AngularGrid ... Lebedev-302
Angular grid pruning method      GridPruning ... 3 (G Style)
Weight generation scheme         WeightScheme... Becke
Basis function cutoff            BFCut       ...    1.0000e-11
Integration weight cutoff        WCut        ...    1.0000e-14
Grids for H and He will be reduced by one unit

# of grid points (after initial pruning)     ...  19280 (   0.0 sec)
# of grid points (after weights+screening)   ...  19251 (   0.0 sec)
nearest neighbour list constructed           ...    0.0 sec
Grid point re-assignment to atoms done       ...    0.0 sec
Grid point division into batches done        ...    0.1 sec
Reduced shell lists constructed in    0.1 sec

Total number of grid points                  ...    19251
Total number of batches                      ...      301
Average number of points per batch           ...       63
Average number of grid points per atom       ...     9626
Average number of shells per batch           ...    24.00 (54.55%)
Average number of basis functions per batch  ...    72.57 (47.74%)
Average number of large shells per batch     ...    14.79 (61.61%)
Average number of large basis fcns per batch ...    41.36 (56.99%)
Maximum spatial batch extension              ...  24.49, 24.19, 17.58 au
Average spatial batch extension              ...   0.85,  0.84,  0.67 au

Final grid set up in    0.2 sec
Final integration                            ... done (   0.1 sec)
Change in XC energy                          ...    -0.004526664
Integrated number of electrons               ...    57.000004108
Previous integrated no of electrons          ...    56.999697954
Total Energy       :        -3423.56489259 Eh          -93159.93689 eV
  Last Energy change         ...   -2.9268e-09  Tolerance :   1.0000e-08
  Last MAX-Density change    ...    3.1656e-06  Tolerance :   1.0000e-07
             **** THE GBW FILE WAS UPDATED (10_TiBr.gbw) ****
             **** DENSITY FILE WAS UPDATED (10_TiBr.scfp) ****
             **** ENERGY FILE WAS UPDATED (10_TiBr.en.tmp) ****
----------------------
UHF SPIN CONTAMINATION
----------------------

Warning: in a DFT calculation there is little theoretical justification to 
         calculate <S**2> as in Hartree-Fock theory. We will do it anyways
         but you should keep in mind that the values have only limited relevance

Expectation value of <S**2>     :     3.759100
Ideal value S*(S+1) for S=1.5   :     3.750000
Deviation                       :     0.009100

             **** THE GBW FILE WAS UPDATED (10_TiBr.gbw) ****
             **** DENSITY FILE WAS UPDATED (10_TiBr.scfp) ****
Total SCF time: 0 days 0 hours 0 min 4 sec 


-------------------------------------------------------------------------------
                          DFT DISPERSION CORRECTION                            
                                                                               
                              DFTD3 V3.1  Rev 1                                
                          USING Becke-Johnson damping                          
-------------------------------------------------------------------------------
-------------------------   ----------------
Dispersion correction           -0.001937730
-------------------------   ----------------


-------------------------   --------------------
FINAL SINGLE POINT ENERGY     -3423.566830318569
-------------------------   --------------------



           ************************************************************
           *        Program running with 24 parallel MPI-processes    *
           *              working on a common directory               *
           ************************************************************
------------------------------------------------------------------------------
                         ORCA SCF GRADIENT CALCULATION
------------------------------------------------------------------------------

Gradient of the Kohn-Sham DFT energy:
Kohn-Sham wavefunction type      ... UKS
Hartree-Fock exchange scaling    ...    0.000
Number of operators              ...    2
Number of atoms                  ...    2
Basis set dimensions             ...  152
Integral neglect threshold       ... 2.5e-11
Integral primitive cutoff        ... 2.5e-12

Nuclear repulsion gradient       ... done
One Electron Gradient            ... done
Pre-screening matrix             ... done
RI-J gradient                    ... done
Exchange-correlation gradient    ... done
Dispersion correction            ... done

------------------
CARTESIAN GRADIENT
------------------

   1   Ti  :    0.000000044   -0.000000052    0.147590770
   2   Br  :   -0.000000115    0.000000105   -0.146648935

Difference to translation invariance:
           :   -0.0000000708    0.0000000523    0.0009418348

Norm of the cartesian gradient     ...    0.2080599568
RMS gradient                       ...    0.0849401217
MAX gradient                       ...    0.1475907700

-------
TIMINGS
-------

Total SCF gradient time            ...        4.762 sec

One electron gradient       ....       0.054 sec  (  1.1%)
Prescreening matrices       ....       3.718 sec  ( 78.1%)
RI-J Coulomb gradient       ....       0.314 sec  (  6.6%)
XC gradient                 ....       0.095 sec  (  2.0%)
------------------------------------------------------------------------------
                         ORCA GEOMETRY RELAXATION STEP
------------------------------------------------------------------------------

Reading the OPT-File                    .... done
Getting information on internals        .... done
Copying old internal coords+grads       .... done
Making the new internal coordinates     .... (new redundants).... done
Validating the new internal coordinates .... (new redundants).... done
Calculating the B-matrix                .... done
Calculating the G,G- and P matrices     .... done
Transforming gradient to internals      .... done
Projecting the internal gradient        .... done
Number of atoms                         ....   2
Number of internal coordinates          ....   1
Current Energy                          .... -3423.566830319 Eh
Current gradient norm                   ....     0.208059957 Eh/bohr
Maximum allowed component of the step   ....  0.300
Current trust radius                    ....  0.300
Updating the Hessian (BFGS)             .... done
Forming the augmented Hessian           .... done
Diagonalizing the augmented Hessian     .... done
Last element of RFO vector              ....  0.955428727
Lowest eigenvalues of augmented Hessian:
 -0.045459170
Length of the computed step             ....  0.308994121
Warning: the length of the step is outside the trust region - taking restricted step instead
The input lambda is                     ....    -0.045459
   iter:   1  x=   -0.059116  g=    0.401060 f(x)=     0.005477
   iter:   2  x=   -0.059732  g=    0.368437 f(x)=     0.000227
   iter:   3  x=   -0.059734  g=    0.367050 f(x)=     0.000000
   iter:   4  x=   -0.059734  g=    0.367048 f(x)=     0.000000
   iter:   5  x=   -0.059734  g=    0.367048 f(x)=     0.000000
The output lambda is                    ....    -0.059734 (5 iterations)
The final length of the internal step   ....  0.300000000
Converting the step to cartesian space:
 Initial RMS(Int)=    0.3000000000
Transforming coordinates:
 Iter   0:  RMS(Cart)=    0.0577350269 RMS(Int)=    0.2000000000
 Iter   1:  RMS(Cart)=    0.0288675135 RMS(Int)=    0.1000000000
 Iter   2:  RMS(Cart)=    0.0000000000 RMS(Int)=    0.0000000000
done
Storing new coordinates                 .... done

                                .--------------------.
          ----------------------|Geometry convergence|-------------------------
          Item                value                   Tolerance       Converged
          ---------------------------------------------------------------------
          Energy change      -0.0130313383            0.0000050000      NO
          RMS gradient        0.1471198526            0.0001000000      NO
          MAX gradient        0.1471198526            0.0003000000      NO
          RMS step            0.3000000000            0.0020000000      NO
          MAX step            0.3000000000            0.0040000000      NO
          ........................................................
          Max(Bonds)      0.1588      Max(Angles)    0.00
          Max(Dihed)        0.00      Max(Improp)    0.00
          ---------------------------------------------------------------------

The optimization has not yet converged - more geometry cycles are needed


    ---------------------------------------------------------------------------
                         Redundant Internal Coordinates
                            (Angstroem and degrees)

        Definition                    Value    dE/dq     Step     New-Value
    ----------------------------------------------------------------------------
     1. B(Br  1,Ti  0)                2.0422 -0.147120  0.1588    2.2010   
    ----------------------------------------------------------------------------

         *************************************************************
         *                GEOMETRY OPTIMIZATION CYCLE   3            *
         *************************************************************
---------------------------------
CARTESIAN COORDINATES (ANGSTROEM)
---------------------------------
  Ti     0.000000    0.000000   -0.100486
  Br     0.000000    0.000000    2.100486

----------------------------
CARTESIAN COORDINATES (A.U.)
----------------------------
  NO LB      ZA    FRAG     MASS         X           Y           Z
   0 Ti   22.0000    0    47.900    0.000000    0.000000   -0.189892
   1 Br   35.0000    0    79.900    0.000000    0.000000    3.969344

--------------------------------
INTERNAL COORDINATES (ANGSTROEM)
--------------------------------
 Ti     0   0   0     0.000000000000     0.00000000     0.00000000
 Br     1   0   0     2.200972878339     0.00000000     0.00000000

---------------------------
INTERNAL COORDINATES (A.U.)
---------------------------
 Ti     0   0   0     0.000000000000     0.00000000     0.00000000
 Br     1   0   0     4.159235968249     0.00000000     0.00000000



           ************************************************************
           *        Program running with 24 parallel MPI-processes    *
           *              working on a common directory               *
           ************************************************************
 One Electron integrals                  ... done
 Pre-screening matrix                    ... done


           ************************************************************
           *        Program running with 24 parallel MPI-processes    *
           *              working on a common directory               *
           ************************************************************

Diagonalization of the overlap matrix:
Smallest eigenvalue                        ... 4.310e-05
Time for diagonalization                   ...    0.006 sec
Threshold for overlap eigenvalues          ... 1.000e-08
Number of eigenvalues below threshold      ... 0
Time for construction of square roots      ...    0.002 sec
Total time needed                          ...    0.008 sec

-------------------
DFT GRID GENERATION
-------------------

General Integration Accuracy     IntAcc      ...  4.340
Radial Grid Type                 RadialGrid  ... Gauss-Chebyshev
Angular Grid (max. acc.)         AngularGrid ... Lebedev-110
Angular grid pruning method      GridPruning ... 3 (G Style)
Weight generation scheme         WeightScheme... Becke
Basis function cutoff            BFCut       ...    1.0000e-11
Integration weight cutoff        WCut        ...    1.0000e-14
Grids for H and He will be reduced by one unit

# of grid points (after initial pruning)     ...   5862 (   0.0 sec)
# of grid points (after weights+screening)   ...   5837 (   0.0 sec)
nearest neighbour list constructed           ...    0.0 sec
Grid point re-assignment to atoms done       ...    0.0 sec
Grid point division into batches done        ...    0.0 sec
Reduced shell lists constructed in    0.0 sec

Total number of grid points                  ...     5837
Total number of batches                      ...       92
Average number of points per batch           ...       63
Average number of grid points per atom       ...     2918
Average number of shells per batch           ...    25.60 (58.18%)
Average number of basis functions per batch  ...    85.60 (56.32%)
Average number of large shells per batch     ...    20.40 (79.69%)
Average number of large basis fcns per batch ...    70.80 (82.71%)
Maximum spatial batch extension              ...  18.98, 28.73, 16.39 au
Average spatial batch extension              ...   0.76,  1.04,  0.71 au

Time for grid setup =    0.029 sec

--------------
SCF ITERATIONS
--------------
ITER       Energy         Delta-E        Max-DP      RMS-DP      [F,P]     Damp
               ***  Starting incremental Fock matrix formation  ***
  0  -3423.5843775532   0.000000000000 0.01222131  0.00026292  0.0968573 0.7000
  1  -3423.5858595104  -0.001481957181 0.00861513  0.00022009  0.0677716 0.7000
                               ***Turning on DIIS***
  2  -3423.5868508025  -0.000991292172 0.01974170  0.00051759  0.0474088 0.0000
  3  -3423.5890227744  -0.002171971823 0.01787697  0.00031312  0.0066535 0.0000
  4  -3423.5890890428  -0.000066268491 0.00725980  0.00013064  0.0045101 0.0000
  5  -3423.5891663721  -0.000077329303 0.00716719  0.00013385  0.0013089 0.0000
  6  -3423.5891733047  -0.000006932524 0.00125412  0.00002662  0.0007324 0.0000
  7  -3423.5891757162  -0.000002411534 0.00157805  0.00001746  0.0003728 0.0000
  8  -3423.5891769707  -0.000001254543 0.00313869  0.00002953  0.0001618 0.0000
  9  -3423.5891802450  -0.000003274266 0.00075127  0.00000706  0.0001698 0.0000
 10  -3423.5891793208   0.000000924204 0.00014252  0.00000270  0.0001486 0.0000
 11  -3423.5891795054  -0.000000184604 0.00010133  0.00000210  0.0001526 0.0000
 12  -3423.5891796267  -0.000000121279 0.00355855  0.00003338  0.0001544 0.0000
 13  -3423.5891853312  -0.000005704487 0.00002947  0.00000039  0.0002549 0.0000
 14  -3423.5891852950   0.000000036192 0.00025992  0.00000244  0.0002548 0.0000
 15  -3423.5891847657   0.000000529245 0.00036189  0.00000383  0.0002475 0.0000
 16  -3423.5891854954  -0.000000729626 0.00188379  0.00001768  0.0002576 0.0000
 17  -3423.5891896810  -0.000004185601 0.01004707  0.00009445  0.0003107 0.0000
 18  -3423.5892250782  -0.000035397232 0.00263583  0.00002483  0.0005918 0.0000
 19  -3423.5892385079  -0.000013429722 0.01040904  0.00009775  0.0006657 0.0000
               *** Restarting incremental Fock matrix formation ***
                                   *** Resetting DIIS ***
 20  -3423.5891956137   0.000042894249 0.02282429  0.00021532  0.0003742 0.0000
 21  -3423.5893192130  -0.000123599284 0.00025178  0.00000457  0.0010153 0.0000
 22  -3423.5893224305  -0.000003217503 0.00011534  0.00000156  0.0010225 0.0000
 23  -3423.5893232526  -0.000000822142 0.00011832  0.00000154  0.0010242 0.0000
 24  -3423.5893225035   0.000000749154 0.00005352  0.00000056  0.0010219 0.0000
 25  -3423.5893221548   0.000000348607 0.00387650  0.00005161  0.0010209 0.0000
 26  -3423.5893618118  -0.000039656969 0.00402152  0.00004715  0.0011353 0.0000
 27  -3423.5894013977  -0.000039585854 0.00434177  0.00004099  0.0012349 0.0000
 28  -3423.5894472463  -0.000045848658 0.00329314  0.00003487  0.0013461 0.0000
 29  -3423.5894834417  -0.000036195324 0.00207563  0.00002698  0.0014256 0.0000
 30  -3423.5894828934   0.000000548276 0.00369375  0.00003823  0.0014272 0.0000
 31  -3423.5895344736  -0.000051580271 0.00360008  0.00003397  0.0015485 0.0000
 32  -3423.5895813191  -0.000046845444 0.00348601  0.00003378  0.0016398 0.0000
 33  -3423.5896290365  -0.000047717452 0.00287498  0.00002972  0.0017286 0.0000
 34  -3423.5896690893  -0.000040052772 0.00219838  0.00002463  0.0017999 0.0000
 35  -3423.5897000844  -0.000030995071 0.00306365  0.00003049  0.0018548 0.0000
 36  -3423.5897518190  -0.000051734587 0.00477917  0.00004721  0.0019367 0.0000
 37  -3423.5898357395  -0.000083920563 0.00636222  0.00006090  0.0020624 0.0000
 38  -3423.5899522577  -0.000116518136 0.00737625  0.00007133  0.0022230 0.0000
 39  -3423.5900966048  -0.000144347177 0.00668927  0.00006779  0.0024003 0.0000
               *** Restarting incremental Fock matrix formation ***
                                   *** Resetting DIIS ***
 40  -3423.5902349267  -0.000138321825 0.00927390  0.00009218  0.0025496 0.0000
 41  -3423.5904494302  -0.000214503523 0.00939576  0.00009496  0.0027758 0.0000
 42  -3423.5906816434  -0.000232213215 0.00454852  0.00007345  0.0029751 0.0000
 43  -3423.5907821183  -0.000100474887 0.00498391  0.00005510  0.0030332 0.0000
 44  -3423.5909156078  -0.000133489542 0.00486869  0.00005191  0.0031529 0.0000
 45  -3423.5910493006  -0.000133692756 0.00744109  0.00008067  0.0032582 0.0000
 46  -3423.5912823673  -0.000233066689 0.00755037  0.00008042  0.0034226 0.0000
 47  -3423.5915142944  -0.000231927136 0.00671105  0.00007647  0.0035581 0.0000
 48  -3423.5917276049  -0.000213310496 0.00370470  0.00009145  0.0036633 0.0000
 49  -3423.5918282183  -0.000100613373 0.00864225  0.00010643  0.0045792 0.0000
 50  -3423.5921573436  -0.000329125278 0.01029176  0.00012668  0.0038308 0.0000
 51  -3423.5925486428  -0.000391299226 0.01231865  0.00014545  0.0039923 0.0000
 52  -3423.5930340622  -0.000485419451 0.01304032  0.00015891  0.0041597 0.0000
 53  -3423.5935695718  -0.000535509582 0.01297455  0.00016515  0.0042835 0.0000
 54  -3423.5941281319  -0.000558560078 0.01037956  0.00014216  0.0043646 0.0000
 55  -3423.5945676207  -0.000439488826 0.00860938  0.00011994  0.0043454 0.0000
 56  -3423.5948671430  -0.000299522272 0.00924310  0.00011213  0.0067204 0.0000
 57  -3423.5952315971  -0.000364454100 0.00973259  0.00011760  0.0069235 0.0000
 58  -3423.5956170003  -0.000385403161 0.00982307  0.00011726  0.0071376 0.0000
 59  -3423.5959904322  -0.000373431951 0.00894019  0.00010547  0.0076699 0.0000
[...]
 131   0.0000       2.221655        60.4543 
 132   0.0000       2.221894        60.4608 
 133   0.0000       2.488930        67.7272 
 134   0.0000       2.767990        75.3208 
 135   0.0000       3.182117        86.5898 
 136   0.0000       3.184458        86.6535 
 137   0.0000       3.191416        86.8428 
 138   0.0000       3.200501        87.0901 
 139   0.0000       3.222947        87.7008 
 140   0.0000       3.224784        87.7508 
 141   0.0000       3.256251        88.6071 
 142   0.0000       3.256724        88.6200 
 143   0.0000       3.365040        91.5674 
 144   0.0000       3.366711        91.6129 
 145   0.0000       3.385581        92.1264 
 146   0.0000       3.390813        92.2687 
 147   0.0000       3.401101        92.5487 
 148   0.0000       3.556709        96.7830 
 149   0.0000       3.556885        96.7878 
 150   0.0000       3.982265       108.3629 
 151   0.0000       4.458794       121.3299 

                 SPIN DOWN ORBITALS
  NO   OCC          E(Eh)            E(eV) 
   0   1.0000    -481.704375    -13107.8424 
   1   1.0000    -178.132360     -4847.2280 
   2   1.0000     -61.917722     -1684.8669 
   3   1.0000     -55.750811     -1517.0567 
   4   1.0000     -55.750276     -1517.0421 
   5   1.0000     -55.750270     -1517.0420 
   6   1.0000     -19.509759      -530.8875 
   7   1.0000     -16.246121      -442.0794 
   8   1.0000     -16.241890      -441.9643 
   9   1.0000     -16.241712      -441.9595 
  10   1.0000      -8.444362      -229.7828 
  11   1.0000      -6.282186      -170.9470 
  12   1.0000      -6.280531      -170.9019 
  13   1.0000      -6.280503      -170.9012 
  14   1.0000      -2.451671       -66.7134 
  15   1.0000      -2.450838       -66.6907 
  16   1.0000      -2.450817       -66.6901 
  17   1.0000      -2.449615       -66.6574 
  18   1.0000      -2.449411       -66.6519 
  19   1.0000      -2.192705       -59.6665 
  20   1.0000      -1.341841       -36.5134 
  21   1.0000      -1.327170       -36.1141 
  22   1.0000      -1.326769       -36.1032 
  23   1.0000      -0.673566       -18.3287 
  24   1.0000      -0.281202        -7.6519 
  25   1.0000      -0.251795        -6.8517 
  26   1.0000      -0.251732        -6.8500 
  27   0.0000      -0.108830        -2.9614 
  28   0.0000      -0.078283        -2.1302 
  29   0.0000      -0.078201        -2.1280 
  30   0.0000      -0.066298        -1.8040 
  31   0.0000      -0.058499        -1.5918 
  32   0.0000      -0.058343        -1.5876 
  33   0.0000      -0.013523        -0.3680 
  34   0.0000      -0.013455        -0.3661 
  35   0.0000       0.005996         0.1632 
  36   0.0000       0.014204         0.3865 
  37   0.0000       0.027919         0.7597 
  38   0.0000       0.027926         0.7599 
  39   0.0000       0.040997         1.1156 
  40   0.0000       0.041062         1.1173 
  41   0.0000       0.041065         1.1174 
  42   0.0000       0.042013         1.1432 
  43   0.0000       0.042048         1.1442 
  44   0.0000       0.052818         1.4372 
  45   0.0000       0.095308         2.5935 
  46   0.0000       0.101021         2.7489 
  47   0.0000       0.101034         2.7493 
  48   0.0000       0.101415         2.7597 
  49   0.0000       0.135964         3.6998 
  50   0.0000       0.136105         3.7036 
  51   0.0000       0.138941         3.7808 
  52   0.0000       0.138956         3.7812 
  53   0.0000       0.141099         3.8395 
  54   0.0000       0.147284         4.0078 
  55   0.0000       0.147335         4.0092 
  56   0.0000       0.169178         4.6036 
  57   0.0000       0.183642         4.9972 
  58   0.0000       0.183689         4.9984 
  59   0.0000       0.230476         6.2716 
  60   0.0000       0.248065         6.7502 
  61   0.0000       0.248146         6.7524 
  62   0.0000       0.264381         7.1942 
  63   0.0000       0.264438         7.1957 
  64   0.0000       0.287976         7.8362 
  65   0.0000       0.307653         8.3717 
  66   0.0000       0.307908         8.3786 
  67   0.0000       0.320849         8.7307 
  68   0.0000       0.320893         8.7320 
  69   0.0000       0.359940         9.7945 
  70   0.0000       0.421747        11.4763 
  71   0.0000       0.469166        12.7667 
  72   0.0000       0.469209        12.7678 
  73   0.0000       0.512833        13.9549 
  74   0.0000       0.512939        13.9578 
  75   0.0000       0.519525        14.1370 
  76   0.0000       0.519570        14.1382 
  77   0.0000       0.564176        15.3520 
  78   0.0000       0.595716        16.2103 
  79   0.0000       0.609633        16.5890 
  80   0.0000       0.610072        16.6009 
  81   0.0000       0.621234        16.9046 
  82   0.0000       0.622778        16.9466 
  83   0.0000       0.622853        16.9487 
  84   0.0000       0.660204        17.9651 
  85   0.0000       0.660282        17.9672 
  86   0.0000       0.745917        20.2974 
  87   0.0000       0.746801        20.3215 
  88   0.0000       0.768242        20.9049 
  89   0.0000       0.802930        21.8488 
  90   0.0000       0.803338        21.8599 
  91   0.0000       0.879293        23.9268 
  92   0.0000       0.879530        23.9332 
  93   0.0000       0.884633        24.0721 
  94   0.0000       0.885103        24.0849 
  95   0.0000       0.916351        24.9352 
  96   0.0000       0.919255        25.0142 
  97   0.0000       0.933744        25.4085 
  98   0.0000       0.933896        25.4126 
  99   0.0000       0.954001        25.9597 
 100   0.0000       0.959017        26.0962 
 101   0.0000       0.961412        26.1613 
 102   0.0000       1.036365        28.2009 
 103   0.0000       1.065108        28.9831 
 104   0.0000       1.065210        28.9858 
 105   0.0000       1.167886        31.7798 
 106   0.0000       1.167942        31.7813 
 107   0.0000       1.255133        34.1539 
 108   0.0000       1.387054        37.7436 
 109   0.0000       1.387210        37.7479 
 110   0.0000       1.613782        43.9132 
 111   0.0000       1.852917        50.4204 
 112   0.0000       1.853073        50.4247 
 113   0.0000       1.871006        50.9127 
 114   0.0000       1.920777        52.2670 
 115   0.0000       1.920860        52.2693 
 116   0.0000       1.945554        52.9412 
 117   0.0000       1.985911        54.0394 
 118   0.0000       1.992192        54.2103 
 119   0.0000       2.031158        55.2706 
 120   0.0000       2.031176        55.2711 
 121   0.0000       2.074294        56.4444 
 122   0.0000       2.077181        56.5230 
 123   0.0000       2.122842        57.7655 
 124   0.0000       2.124036        57.7980 
 125   0.0000       2.129180        57.9379 
 126   0.0000       2.129345        57.9424 
 127   0.0000       2.155586        58.6565 
 128   0.0000       2.184421        59.4411 
 129   0.0000       2.184522        59.4439 
 130   0.0000       2.207162        60.0599 
 131   0.0000       2.262516        61.5662 
 132   0.0000       2.262840        61.5750 
 133   0.0000       2.524916        68.7065 
 134   0.0000       2.796253        76.0899 
 135   0.0000       3.236428        88.0677 
 136   0.0000       3.238009        88.1107 
 137   0.0000       3.240909        88.1896 
 138   0.0000       3.241584        88.2080 
 139   0.0000       3.266150        88.8764 
 140   0.0000       3.267510        88.9135 
 141   0.0000       3.293686        89.6258 
 142   0.0000       3.294057        89.6359 
 143   0.0000       3.425559        93.2142 
 144   0.0000       3.433854        93.4399 
 145   0.0000       3.444209        93.7217 
 146   0.0000       3.448477        93.8378 
 147   0.0000       3.452158        93.9380 
 148   0.0000       3.612181        98.2925 
 149   0.0000       3.612679        98.3060 
 150   0.0000       4.025397       109.5366 
 151   0.0000       4.461015       121.3904 

                    ********************************
                    * MULLIKEN POPULATION ANALYSIS *
                    ********************************

--------------------------------------------
MULLIKEN ATOMIC CHARGES AND SPIN POPULATIONS
--------------------------------------------
   0 Ti:    0.347163    2.983275
   1 Br:   -0.347163    0.016725
Sum of atomic charges         :   -0.0000000
Sum of atomic spin populations:    3.0000000

-----------------------------------------------------
MULLIKEN REDUCED ORBITAL CHARGES AND SPIN POPULATIONS
-----------------------------------------------------
CHARGE
  0 Tis       :     6.767910  s :     6.767910
      pz      :     4.125381  p :    12.218706
      px      :     4.046795
      py      :     4.046531
      dz2     :     0.496684  d :     2.635821
      dxz     :     0.499034
      dyz     :     0.491520
      dx2y2   :     0.565537
      dxy     :     0.583046
      f0      :     0.004272  f :     0.020963
      f+1     :     0.007927
      f-1     :     0.007913
      f+2     :     0.000307
      f-2     :     0.000306
      f+3     :     0.000149
      f-3     :     0.000089
      g0      :     0.002076  g :     0.009437
      g+1     :     0.003529
      g-1     :     0.003528
      g+2     :     0.000032
      g-2     :     0.000034
      g+3     :     0.000130
      g-3     :     0.000079
      g+4     :     0.000015
      g-4     :     0.000015
  1 Brs       :     8.037635  s :     8.037635
      pz      :     5.565068  p :    17.294100
      px      :     5.864817
      py      :     5.864215
      dz2     :     2.000501  d :    10.013935
      dxz     :     2.005753
      dyz     :     2.005725
      dx2y2   :     2.000976
      dxy     :     2.000980
      f0      :     0.000016  f :     0.001493
      f+1     :     0.000523
      f-1     :     0.000525
      f+2     :     0.000209
      f-2     :     0.000219
      f+3     :     0.000000
      f-3     :     0.000000

SPIN
  0 Tis       :     0.588568  s :     0.588568
      pz      :     0.056241  p :     0.097677
      px      :     0.020861
      py      :     0.020575
      dz2     :     0.336683  d :     2.297735
      dxz     :     0.410286
      dyz     :     0.402602
      dx2y2   :     0.565327
      dxy     :     0.582839
      f0      :    -0.000295  f :    -0.000214
      f+1     :    -0.000317
      f-1     :    -0.000346
      f+2     :     0.000268
      f-2     :     0.000266
      f+3     :     0.000131
      f-3     :     0.000078
      g0      :    -0.000129  g :    -0.000492
      g+1     :    -0.000319
      g-1     :    -0.000323
      g+2     :     0.000026
      g-2     :     0.000026
      g+3     :     0.000124
      g-3     :     0.000074
      g+4     :     0.000015
      g-4     :     0.000015
  1 Brs       :     0.042100  s :     0.042100
      pz      :    -0.025672  p :    -0.034043
      px      :    -0.003988
      py      :    -0.004383
      dz2     :     0.001846  d :     0.007718
      dxz     :     0.001966
      dyz     :     0.001939
      dx2y2   :     0.000979
      dxy     :     0.000988
      f0      :     0.000241  f :     0.000950
      f+1     :     0.000140
      f-1     :     0.000142
      f+2     :     0.000208
      f-2     :     0.000219
      f+3     :    -0.000000
      f-3     :    -0.000000


                     *******************************
                     * LOEWDIN POPULATION ANALYSIS *
                     *******************************

-------------------------------------------
LOEWDIN ATOMIC CHARGES AND SPIN POPULATIONS
-------------------------------------------
   0 Ti:   -0.252795    2.887432
   1 Br:    0.252795    0.112568

----------------------------------------------------
LOEWDIN REDUCED ORBITAL CHARGES AND SPIN POPULATIONS
----------------------------------------------------
CHARGE
  0 Tis       :     6.604044  s :     6.604044
      pz      :     4.199464  p :    12.324856
      px      :     4.062952
      py      :     4.062440
      dz2     :     0.635330  d :     2.870419
      dxz     :     0.551822
      dyz     :     0.544823
      dx2y2   :     0.560546
      dxy     :     0.577899
      f0      :     0.125495  f :     0.328158
      f+1     :     0.100525
      f-1     :     0.100402
      f+2     :     0.000746
      f-2     :     0.000751
      f+3     :     0.000149
      f-3     :     0.000090
      g0      :     0.038772  g :     0.125317
      g+1     :     0.043084
      g-1     :     0.043056
      g+2     :     0.000082
      g-2     :     0.000084
      g+3     :     0.000130
      g-3     :     0.000078
      g+4     :     0.000015
      g-4     :     0.000015
  1 Brs       :     7.548139  s :     7.548139
      pz      :     5.685782  p :    16.933357
      px      :     5.623974
      py      :     5.623601
      dz2     :     2.115699  d :    10.183197
      dxz     :     2.030506
      dyz     :     2.030245
      dx2y2   :     2.003328
      dxy     :     2.003419
      f0      :     0.046817  f :     0.082513
      f+1     :     0.015515
      f-1     :     0.015390
      f+2     :     0.002358
      f-2     :     0.002432
      f+3     :     0.000000
      f-3     :     0.000000

SPIN
  0 Tis       :     0.576791  s :     0.576791
      pz      :     0.042610  p :     0.101660
      px      :     0.029780
      py      :     0.029270
      dz2     :     0.315040  d :     2.205925
      dxz     :     0.379995
      dyz     :     0.372865
      dx2y2   :     0.560334
      dxy     :     0.577691
      f0      :    -0.000652  f :     0.002945
      f+1     :     0.001058
      f-1     :     0.000947
      f+2     :     0.000689
      f-2     :     0.000694
      f+3     :     0.000131
      f-3     :     0.000079
      g0      :    -0.000243  g :     0.000112
      g+1     :     0.000049
      g-1     :     0.000027
      g+2     :     0.000025
      g-2     :     0.000027
      g+3     :     0.000123
      g-3     :     0.000074
      g+4     :     0.000015
      g-4     :     0.000015
  1 Brs       :     0.027950  s :     0.027950
      pz      :     0.029544  p :     0.024970
      px      :    -0.002157
      py      :    -0.002418
      dz2     :     0.007459  d :     0.040604
      dxz     :     0.013255
      dyz     :     0.012992
      dx2y2   :     0.003403
      dxy     :     0.003495
      f0      :     0.001084  f :     0.019043
      f+1     :     0.006649
      f-1     :     0.006523
      f+2     :     0.002357
      f-2     :     0.002431
      f+3     :     0.000000
      f-3     :     0.000000


                      *****************************
                      * MAYER POPULATION ANALYSIS *
                      *****************************

  NA   - Mulliken gross atomic population
  ZA   - Total nuclear charge
  QA   - Mulliken gross atomic charge
  VA   - Mayer's total valence
  BVA  - Mayer's bonded valence
  FA   - Mayer's free valence

  ATOM       NA         ZA         QA         VA         BVA        FA
  0 Ti    21.6528    22.0000     0.3472     4.0873     1.2833     2.8041
  1 Br    35.3472    35.0000    -0.3472     1.2901     1.2833     0.0068

  Mayer bond orders larger than 0.100000
B(  0-Ti,  1-Br) :   1.2833 

-------
TIMINGS
-------

Total SCF time: 0 days 0 hours 0 min 2 sec 

Total time                  ....       2.232 sec
Sum of individual times     ....       2.053 sec  ( 92.0%)

Fock matrix formation       ....       1.778 sec  ( 79.7%)
  Split-RI-J                ....       1.302 sec  ( 73.2% of F)
  XC integration            ....       0.225 sec  ( 12.6% of F)
    Basis function eval.    ....       0.027 sec  ( 12.2% of XC)
    Density eval.           ....       0.035 sec  ( 15.8% of XC)
    XC-Functional eval.     ....       0.006 sec  (  2.8% of XC)
    XC-Potential eval.      ....       0.083 sec  ( 36.9% of XC)
Diagonalization             ....       0.050 sec  (  2.2%)
Density matrix formation    ....       0.007 sec  (  0.3%)
Population analysis         ....       0.007 sec  (  0.3%)
Initial guess               ....       0.014 sec  (  0.6%)
Orbital Transformation      ....       0.000 sec  (  0.0%)
Orbital Orthonormalization  ....       0.009 sec  (  0.4%)
DIIS solution               ....       0.016 sec  (  0.7%)
Grid generation             ....       0.181 sec  (  8.1%)


-------------------------------------------------------------------------------
                          DFT DISPERSION CORRECTION                            
                                                                               
                              DFTD3 V3.1  Rev 1                                
                          USING Becke-Johnson damping                          
-------------------------------------------------------------------------------
The TPSS functional is recognized
Active option DFTDOPT                   ...         4   

molecular C6(AA) [au] = 1175.723241 


            DFT-D V3
 parameters
 s6 scaling factor         :     1.0000 
 a1 scaling factor         :     0.4535 
 s8 scaling factor         :     1.9435 
 a2 scaling factor         :     4.4752 
 ad hoc parameters k1-k3   :    16.0000     1.3333    -4.0000 

 Edisp/kcal,au: -1.224087525485  -0.001950707432 
 E6   /kcal   :  -0.375605746 
 E8   /kcal   :  -0.848481780 
 % E8         :  69.315450268 

-------------------------   ----------------
Dispersion correction           -0.001950707
-------------------------   ----------------


-------------------------   --------------------
FINAL SINGLE POINT ENERGY     -3423.617674662628
-------------------------   --------------------

                                *** OPTIMIZATION RUN DONE ***

                            ***************************************
                            *     ORCA property calculations      *
                            ***************************************

                                    ---------------------
                                    Active property flags
                                    ---------------------
   (+) Dipole Moment


------------------------------------------------------------------------------
                       ORCA ELECTRIC PROPERTIES CALCULATION
------------------------------------------------------------------------------

Dipole Moment Calculation                       ... on
Quadrupole Moment Calculation                   ... off
Polarizability Calculation                      ... off
GBWName                                         ... 10_TiBr.gbw
Electron density file                           ... 10_TiBr.scfp
The origin for moment calculation is the CENTER OF MASS  = ( 0.000000,  0.000000  2.459298)

-------------
DIPOLE MOMENT
-------------
                                X             Y             Z
Electronic contribution:     -0.00484       0.00201       1.27375
Nuclear contribution   :      0.00000       0.00000      -2.89414
                        -----------------------------------------
Total Dipole Moment    :     -0.00484       0.00201      -1.62038
                        -----------------------------------------
Magnitude (a.u.)       :      1.62039
Magnitude (Debye)      :      4.11870



--------------------
Rotational spectrum 
--------------------
 
Rotational constants in cm-1:     0.000000     0.097124     0.097124 
Rotational constants in MHz :     0.000000  2911.693161  2911.693161 

 Dipole components along the rotational axes: 
x,y,z [a.u.] :    -1.620382     0.002009    -0.004842 
x,y,z [Debye]:    -4.118683     0.005107    -0.012306 

 

Timings for individual modules:

Sum of individual times         ...      123.184 sec (=   2.053 min)
GTO integral calculation        ...       34.547 sec (=   0.576 min)  28.0 %
SCF iterations                  ...       52.352 sec (=   0.873 min)  42.5 %
SCF Gradient evaluation         ...       36.048 sec (=   0.601 min)  29.3 %
Geometry relaxation             ...        0.236 sec (=   0.004 min)   0.2 %
                             ****ORCA TERMINATED NORMALLY****
TOTAL RUN TIME: 0 days 0 hours 2 minutes 4 seconds 221 msec
