
                                 *****************
                                 * O   R   C   A *
                                 *****************

           --- An Ab Initio, DFT and Semiempirical electronic structure package ---

                  #######################################################
                  #                        -***-                        #
                  #          Department of theory and spectroscopy      #
                  #               Directorship: Frank Neese             #
                  #        Max Planck Institute fuer Kohlenforschung    #
                  #                Kaiser Wilhelm Platz 1               #
                  #                 D-45470 Muelheim/Ruhr               #
                  #                      Germany                        #
                  #                                                     #
                  #                  All rights reserved                #
                  #                        -***-                        #
                  #######################################################


                         Program Version 4.2.0 -  RELEASE  -


 With contributions from (in alphabetic order):
   Daniel Aravena         : Magnetic Suceptibility
   Michael Atanasov       : Ab Initio Ligand Field Theory (pilot matlab implementation)
   Alexander A. Auer      : GIAO ZORA, VPT2
   Ute Becker             : Parallelization
   Giovanni Bistoni       : ED, misc. LED, open-shell LED, HFLED
   Martin Brehm           : Molecular dynamics
   Dmytro Bykov           : SCF Hessian
   Vijay G. Chilkuri      : MRCI spin determinant printing, contributions to CSF-ICE
   Dipayan Datta          : RHF DLPNO-CCSD density
   Achintya Kumar Dutta   : EOM-CC, STEOM-CC
   Dmitry Ganyushin       : Spin-Orbit,Spin-Spin,Magnetic field MRCI
   Miquel Garcia          : C-PCM Hessian, Gaussian charge scheme
   Yang Guo               : DLPNO-NEVPT2, CIM, IAO-localization
   Andreas Hansen         : Spin unrestricted coupled pair/coupled cluster methods
   Benjamin Helmich-Paris : CASSCF linear response (MC-RPA)
   Lee Huntington         : MR-EOM, pCC
   Robert Izsak           : Overlap fitted RIJCOSX, COSX-SCS-MP3, EOM
   Christian Kollmar      : KDIIS, OOCD, Brueckner-CCSD(T), CCSD density
   Simone Kossmann        : Meta GGA functionals, TD-DFT gradient, OOMP2, MP2 Hessian
   Martin Krupicka        : AUTO-CI
   Lucas Lang             : DCDCAS
   Dagmar Lenk            : GEPOL surface, SMD
   Dimitrios Liakos       : Extrapolation schemes; Compound Job, initial MDCI parallelization
   Dimitrios Manganas     : Further ROCIS development; embedding schemes
   Dimitrios Pantazis     : SARC Basis sets
   Taras Petrenko         : DFT Hessian,TD-DFT gradient, ASA, ECA, R-Raman, ABS, FL, XAS/XES, NRVS
   Peter Pinski           : DLPNO-MP2, DLPNO-MP2 Gradient
   Christoph Reimann      : Effective Core Potentials
   Marius Retegan         : Local ZFS, SOC
   Christoph Riplinger    : Optimizer, TS searches, QM/MM, DLPNO-CCSD(T), (RO)-DLPNO pert. Triples
   Tobias Risthaus        : Range-separated hybrids, TD-DFT gradient, RPA, STAB
   Michael Roemelt        : Original ROCIS implementation
   Masaaki Saitow         : Open-shell DLPNO-CCSD energy and density
   Barbara Sandhoefer     : DKH picture change effects
   Avijit Sen             : IP-ROCIS
   Kantharuban Sivalingam : CASSCF convergence, NEVPT2, FIC-MRCI
   Bernardo de Souza      : ESD, SOC TD-DFT
   Georgi Stoychev        : AutoAux, RI-MP2 NMR
   Willem Van den Heuvel  : Paramagnetic NMR
   Boris Wezisla          : Elementary symmetry handling
   Frank Wennmohs         : Technical directorship


 We gratefully acknowledge several colleagues who have allowed us to
 interface, adapt or use parts of their codes:
   Stefan Grimme, W. Hujo, H. Kruse,             : VdW corrections, initial TS optimization,
                  C. Bannwarth                     DFT functionals, gCP, sTDA/sTD-DF
   Ed Valeev, F. Pavosevic, A. Kumar             : LibInt (2-el integral package), F12 methods
   Garnet Chan, S. Sharma, J. Yang, R. Olivares  : DMRG
   Ulf Ekstrom                                   : XCFun DFT Library
   Mihaly Kallay                                 : mrcc  (arbitrary order and MRCC methods)
   Andreas Klamt, Michael Diedenhofen            : otool_cosmo (COSMO solvation model)
   Jiri Pittner, Ondrej Demel                    : Mk-CCSD
   Frank Weinhold                                : gennbo (NPA and NBO analysis)
   Christopher J. Cramer and Donald G. Truhlar   : smd solvation model
   Lars Goerigk                                  : TD-DFT with DH, B97 family of functionals
   V. Asgeirsson, H. Jonsson                     : NEB implementation
   FAccTs GmbH                                   : IRC, NEB, NEB-TS, Multilevel, MM, QM/MM, CI optimization
   S Lehtola, MJT Oliveira, MAL Marques          : LibXC Library


 Your calculation uses the libint2 library for the computation of 2-el integrals
 For citations please refer to: http://libint.valeyev.net

 Your ORCA version has been built with support for libXC version: 4.2.3
 For citations please refer to: https://tddft.org/programs/libxc/

 This ORCA versions uses:
   CBLAS   interface :  Fast vector & matrix operations
   LAPACKE interface :  Fast linear algebra routines
   SCALAPACK package :  Parallel linear algebra routines


Your calculation utilizes the atom-pairwise dispersion correction
with the Becke-Johnson damping scheme (D3BJ)
Cite in your paper:
S.Grimme, S.Ehrlich, L.Goerigk, J Comput Chem, (2011), 32, 1456–1465 
S.Grimme, J.Antony, S.Ehrlich and H.Krieg, J.Chem.Phys., 132, (2010), 154104 
   

----- Orbital basis set information -----
Your calculation utilizes the basis: aug-cc-pVTZ 
    H, B-Ne : Obtained from the ccRepo (grant-hill.group.shef.ac.uk/ccrepo) Feb. 2017
              R. A. Kendall, T. H. Dunning, Jr., R. J. Harrison, J. Chem. Phys. 96, 6796 (1992)
         He : Obtained from the ccRepo (grant-hill.group.shef.ac.uk/ccrepo) Feb. 2017
              D. E. Woon, T. H. Dunning, Jr., J. Chem. Phys. 100, 2975 (1994)
  Li-Be, Na : Obtained from the ccRepo (grant-hill.group.shef.ac.uk/ccrepo) Feb. 2017
              B. P. Prascher, D. E. Woon, K. A. Peterson, T. H. Dunning, Jr., A. K. Wilson, Theor. Chem. Acc. 128, 69 (2011)
         Mg : Obtained from the Peterson Research Group Website (tyr0.chem.wsu.edu/~kipeters) Feb. 2017
              B. P. Prascher, D. E. Woon, K. A. Peterson, T. H. Dunning, Jr., A. K. Wilson, Theor. Chem. Acc. 128, 69 (2011)
      Al-Ar : Obtained from the ccRepo (grant-hill.group.shef.ac.uk/ccrepo) Feb. 2017
              D. E. Woon, T. H. Dunning, Jr., J. Chem. Phys. 98, 1358 (1993)
      Sc-Zn : Obtained from the ccRepo (grant-hill.group.shef.ac.uk/ccrepo) Feb. 2017
              N. B. Balabanov, K. A. Peterson, J. Chem. Phys. 123, 064107 (2005)
              N. B. Balabanov, K. A. Peterson, J. Chem. Phys. 125, 074110 (2006)
      Ga-Kr : Obtained from the ccRepo (grant-hill.group.shef.ac.uk/ccrepo) Feb. 2017
              A. K. Wilson, D. E. Woon, K. A. Peterson, T. H. Dunning, Jr., J. Chem. Phys. 110, 7667 (1999)
     Ag, Au : Obtained from the Peterson Research Group Website (tyr0.chem.wsu.edu/~kipeters) Feb. 2017
              K. A. Peterson, C. Puzzarini, Theor. Chem. Acc. 114, 283 (2005)

----- AuxJ basis set information -----
Your calculation utilizes the auxiliary basis: def2/J
   F. Weigend, Phys. Chem. Chem. Phys. 8, 1057 (2006).

================================================================================
                                        WARNINGS
                       Please study these warnings very carefully!
================================================================================


WARNING: your system is open-shell and RHF/RKS was chosen
  ===> : WILL SWITCH to UHF/UKS


WARNING: Geometry Optimization
  ===> : Switching off AutoStart
         For restart on a previous wavefunction, please use MOREAD

INFO   : the flag for use of LIBINT has been found!

================================================================================
                                       INPUT FILE
================================================================================
NAME = 15_VCl.in
|  1> #
|  2> # 15_VCl tpss/aug-cc-pvtz
|  3> #
|  4> ! tpss d3bj aug-cc-pvtz def2/j opt xyzfile
|  5> 
|  6> *xyz 0 5
|  7> V 0.0 0.0 0.0
|  8> Cl 0.0 0.0 2.0
|  9> *
| 10> 
| 11> %pal
| 12> nprocs 24
| 13> end
| 14> 
| 15> 
| 16>                          ****END OF INPUT****
================================================================================

                       *****************************
                       * Geometry Optimization Run *
                       *****************************

Geometry optimization settings:
Update method            Update   .... BFGS
Choice of coordinates    CoordSys .... Z-matrix Internals
Initial Hessian          InHess   .... Almoef's Model

Convergence Tolerances:
Energy Change            TolE     ....  5.0000e-06 Eh
Max. Gradient            TolMAXG  ....  3.0000e-04 Eh/bohr
RMS Gradient             TolRMSG  ....  1.0000e-04 Eh/bohr
Max. Displacement        TolMAXD  ....  4.0000e-03 bohr
RMS Displacement         TolRMSD  ....  2.0000e-03 bohr
Strict Convergence                ....  False
------------------------------------------------------------------------------
                        ORCA OPTIMIZATION COORDINATE SETUP
------------------------------------------------------------------------------

The optimization will be done in new redundant internal coordinates
Making redundant internal coordinates   ...  (new redundants) done
Evaluating the initial hessian          ...  (Almloef) done
Evaluating the coordinates              ...  done
Calculating the B-matrix                .... done
Calculating the G-matrix                .... done
Diagonalizing the G-matrix              .... done
The first mode is                       ....    0
The number of degrees of freedom        ....    1

    -----------------------------------------------------------------
                    Redundant Internal Coordinates


    -----------------------------------------------------------------
         Definition                    Initial Value    Approx d2E/dq
    -----------------------------------------------------------------
      1. B(Cl  1,V   0)                  2.0000         1.508840   
    -----------------------------------------------------------------

Number of atoms                         .... 2
Number of degrees of freedom            .... 1

         *************************************************************
         *                GEOMETRY OPTIMIZATION CYCLE   1            *
         *************************************************************
---------------------------------
CARTESIAN COORDINATES (ANGSTROEM)
---------------------------------
  V      0.000000    0.000000    0.000000
  Cl     0.000000    0.000000    2.000000

----------------------------
CARTESIAN COORDINATES (A.U.)
----------------------------
  NO LB      ZA    FRAG     MASS         X           Y           Z
   0 V    23.0000    0    50.940    0.000000    0.000000    0.000000
   1 Cl   17.0000    0    35.453    0.000000    0.000000    3.779452

--------------------------------
INTERNAL COORDINATES (ANGSTROEM)
--------------------------------
 V      0   0   0     0.000000000000     0.00000000     0.00000000
 Cl     1   0   0     2.000000000000     0.00000000     0.00000000

---------------------------
INTERNAL COORDINATES (A.U.)
---------------------------
 V      0   0   0     0.000000000000     0.00000000     0.00000000
 Cl     1   0   0     3.779452267843     0.00000000     0.00000000

---------------------
BASIS SET INFORMATION
---------------------
There are 2 groups of distinct atoms

 Group   1 Type V   : 116s77p23d3f2g contracted to 8s7p5d3f2g pattern {19191919191911/151515151511/77711/111/11}
 Group   2 Type Cl  : 42s17p3d2f contracted to 6s5p3d2f pattern {131313111/77111/111/11}

Atom   0V    basis set group =>   1
Atom   1Cl   basis set group =>   2
---------------------------------
AUXILIARY/J BASIS SET INFORMATION
---------------------------------
There are 2 groups of distinct atoms

 Group   1 Type V   : 19s5p5d3f3g contracted to 8s5p5d2f3g pattern {121111111/11111/11111/21/111}
 Group   2 Type Cl  : 14s5p5d2f1g contracted to 8s4p3d1f1g pattern {71111111/2111/311/2/1}

Atom   0V    basis set group =>   1
Atom   1Cl   basis set group =>   2


           ************************************************************
           *        Program running with 24 parallel MPI-processes    *
           *              working on a common directory               *
           ************************************************************
------------------------------------------------------------------------------
                           ORCA GTO INTEGRAL CALCULATION
                           -- RI-GTO INTEGRALS CHOSEN --
------------------------------------------------------------------------------

                         BASIS SET STATISTICS AND STARTUP INFO

Gaussian basis set:
 # of primitive gaussian shells          ...  285
 # of primitive gaussian functions       ...  623
 # of contracted shells                  ...   41
 # of contracted basis functions         ...  143
 Highest angular momentum                ...    4
 Maximum contraction depth               ...   19
Auxiliary gaussian basis set:
 # of primitive gaussian shells          ...   62
 # of primitive gaussian functions       ...  184
 # of contracted shells                  ...   40
 # of contracted aux-basis functions     ...  140
 Highest angular momentum                ...    4
 Maximum contraction depth               ...   12
Ratio of auxiliary to basis functions    ...  0.98
Integral package used                  ... LIBINT
 One Electron integrals                  ... done
 Ordering auxiliary basis shells         ... done
 Integral threshhold             Thresh  ...  2.500e-11
 Primitive cut-off               TCut    ...  2.500e-12
 Pre-screening matrix                    ... done
 Shell pair data                         ... 
 Ordering of the shell pairs             ... done (   0.000 sec) 861 of 861 pairs
 Determination of significant pairs      ... done (   0.000 sec)
 Creation of shell pair data             ... done (   0.001 sec)
 Storage of shell pair data              ... done (   0.032 sec)
 Shell pair data done in (   0.033 sec)
 Computing two index integrals           ... done
 Cholesky decomposition of the V-matrix  ... done


Timings:
 Total evaluation time                   ...   2.591 sec (  0.043 min)
 One electron matrix time                ...   0.048 sec (  0.001 min) =  1.9%
 Schwartz matrix evaluation time         ...   2.481 sec (  0.041 min) = 95.7%
 Two index repulsion integral time       ...   0.001 sec (  0.000 min) =  0.0%
 Cholesky decomposition of V             ...   0.004 sec (  0.000 min) =  0.1%
 Three index repulsion integral time     ...   0.000 sec (  0.000 min) =  0.0%



           ************************************************************
           *        Program running with 24 parallel MPI-processes    *
           *              working on a common directory               *
           ************************************************************
-------------------------------------------------------------------------------
                                 ORCA SCF
-------------------------------------------------------------------------------

------------
SCF SETTINGS
------------
Hamiltonian:
 Density Functional     Method          .... DFT(GTOs)
 Exchange Functional    Exchange        .... TPSS
 Correlation Functional Correlation     .... TPSS
 LDA part of GGA corr.  LDAOpt          .... PW91-LDA
 Gradients option       PostSCFGGA      .... off
   Density functional embedding theory  .... OFF
   NL short-range parameter             ....  5.000000
 RI-approximation to the Coulomb term is turned on
   Number of auxiliary basis functions  .... 140


General Settings:
 Integral files         IntName         .... 15_VCl
 Hartree-Fock type      HFTyp           .... UHF
 Total Charge           Charge          ....    0
 Multiplicity           Mult            ....    5
 Number of Electrons    NEL             ....   40
 Basis Dimension        Dim             ....  143
 Nuclear Repulsion      ENuc            ....    103.4541442227 Eh

Convergence Acceleration:
 DIIS                   CNVDIIS         .... on
   Start iteration      DIISMaxIt       ....    12
   Startup error        DIISStart       ....  0.200000
   # of expansion vecs  DIISMaxEq       ....     5
   Bias factor          DIISBfac        ....   1.050
   Max. coefficient     DIISMaxC        ....  10.000
 Newton-Raphson         CNVNR           .... off
 SOSCF                  CNVSOSCF        .... off
 Level Shifting         CNVShift        .... on
   Level shift para.    LevelShift      ....    0.2500
   Turn off err/grad.   ShiftErr        ....    0.0010
 Zerner damping         CNVZerner       .... off
 Static damping         CNVDamp         .... on
   Fraction old density DampFac         ....    0.7000
   Max. Damping (<1)    DampMax         ....    0.9800
   Min. Damping (>=0)   DampMin         ....    0.0000
   Turn off err/grad.   DampErr         ....    0.1000
 Fernandez-Rico         CNVRico         .... off

SCF Procedure:
 Maximum # iterations   MaxIter         ....   125
 SCF integral mode      SCFMode         .... Direct
   Integral package                     .... LIBINT
 Reset frequency        DirectResetFreq ....    20
 Integral Threshold     Thresh          ....  2.500e-11 Eh
 Primitive CutOff       TCut            ....  2.500e-12 Eh

Convergence Tolerance:
 Convergence Check Mode ConvCheckMode   .... Total+1el-Energy
 Convergence forced     ConvForced      .... 0
 Energy Change          TolE            ....  1.000e-08 Eh
 1-El. energy change                    ....  1.000e-05 Eh
 DIIS Error             TolErr          ....  5.000e-07


Diagonalization of the overlap matrix:
Smallest eigenvalue                        ... 4.960e-05
Time for diagonalization                   ...    0.006 sec
Threshold for overlap eigenvalues          ... 1.000e-08
Number of eigenvalues below threshold      ... 0
Time for construction of square roots      ...    0.002 sec
Total time needed                          ...    0.008 sec

-------------------
DFT GRID GENERATION
-------------------

General Integration Accuracy     IntAcc      ...  4.340
Radial Grid Type                 RadialGrid  ... Gauss-Chebyshev
Angular Grid (max. acc.)         AngularGrid ... Lebedev-110
Angular grid pruning method      GridPruning ... 3 (G Style)
Weight generation scheme         WeightScheme... Becke
Basis function cutoff            BFCut       ...    1.0000e-11
Integration weight cutoff        WCut        ...    1.0000e-14
Grids for H and He will be reduced by one unit

# of grid points (after initial pruning)     ...   4816 (   0.0 sec)
# of grid points (after weights+screening)   ...   4791 (   0.0 sec)
nearest neighbour list constructed           ...    0.0 sec
Grid point re-assignment to atoms done       ...    0.0 sec
Grid point division into batches done        ...    0.0 sec
Reduced shell lists constructed in    0.0 sec

Total number of grid points                  ...     4791
Total number of batches                      ...       76
Average number of points per batch           ...       63
Average number of grid points per atom       ...     2396
Average number of shells per batch           ...    24.40 (59.51%)
Average number of basis functions per batch  ...    82.80 (57.90%)
Average number of large shells per batch     ...    18.40 (75.41%)
Average number of large basis fcns per batch ...    55.20 (66.67%)
Maximum spatial batch extension              ...  18.98, 28.73, 16.15 au
Average spatial batch extension              ...   0.92,  1.26,  0.85 au

Time for grid setup =    0.026 sec

------------------------------
INITIAL GUESS: MODEL POTENTIAL
------------------------------
Loading Hartree-Fock densities                     ... done
Calculating cut-offs                               ... done
Setting up the integral package                    ... done
Initializing the effective Hamiltonian             ... done
Starting the Coulomb interaction                   ... done (   0.0 sec)
Reading the grid                                   ... done
Mapping shells                                     ... done
Starting the XC term evaluation                    ... done (   0.0 sec)
  promolecular density results
     # of electrons  =     39.999858985
     EX              =    -71.364211870
     EC              =     -1.623252564
     EX+EC           =    -72.987464433
Transforming the Hamiltonian                       ... done (   0.0 sec)
Diagonalizing the Hamiltonian                      ... done (   0.0 sec)
Back transforming the eigenvectors                 ... done (   0.0 sec)
Now organizing SCF variables                       ... done
                      ------------------
                      INITIAL GUESS DONE (   0.1 sec)
                      ------------------
--------------
SCF ITERATIONS
--------------
ITER       Energy         Delta-E        Max-DP      RMS-DP      [F,P]     Damp
               ***  Starting incremental Fock matrix formation  ***
  0  -1404.1951497351   0.000000000000 0.14466584  0.00242196  0.1388274 0.7000
  1  -1404.2374879148  -0.042338179705 0.05008348  0.00074948  0.0468870 0.7000
                               ***Turning on DIIS***
  2  -1404.2496763080  -0.012188393139 0.11280557  0.00208241  0.0269953 0.0000
  3  -1404.2746951940  -0.025018886040 0.02493114  0.00045596  0.0336582 0.0000
  4  -1404.2792809779  -0.004585783902 0.05556626  0.00109861  0.0262015 0.0000
  5  -1404.2813185140  -0.002037536073 0.01248760  0.00025665  0.0037840 0.0000
  6  -1404.2816071884  -0.000288674450 0.00768930  0.00012318  0.0023707 0.0000
  7  -1404.2817475358  -0.000140347361 0.00659609  0.00006966  0.0020316 0.0000
  8  -1404.2818414360  -0.000093900220 0.00579656  0.00005572  0.0018039 0.0000
  9  -1404.2819067047  -0.000065268714 0.00504954  0.00005171  0.0015424 0.0000
 10  -1404.2819542829  -0.000047578169 0.00424389  0.00003886  0.0013473 0.0000
 11  -1404.2819872327  -0.000032949799 0.00365238  0.00005106  0.0011264 0.0000
 12  -1404.2820098894  -0.000022656661 0.00301663  0.00002821  0.0010636 0.0000
 13  -1404.2820274491  -0.000017559713 0.01531479  0.00013777  0.0008764 0.0000
 14  -1404.2820551008  -0.000027651771 0.00143554  0.00002441  0.0020663 0.0000
 15  -1404.2820634586  -0.000008357762 0.00203708  0.00001824  0.0009416 0.0000
 16  -1404.2820668400  -0.000003381386 0.00043388  0.00000416  0.0002427 0.0000
 17  -1404.2820667980   0.000000041967 0.00025763  0.00000357  0.0002355 0.0000
 18  -1404.2820668857  -0.000000087721 0.00045212  0.00000663  0.0002455 0.0000
 19  -1404.2820670907  -0.000000204939 0.00009237  0.00000132  0.0000466 0.0000
               *** Restarting incremental Fock matrix formation ***
                                   *** Resetting DIIS ***
 20  -1404.2820669603   0.000000130397 0.00004853  0.00000062  0.0000286 0.0000
 21  -1404.2820669947  -0.000000034380 0.00000916  0.00000017  0.0000154 0.0000
 22  -1404.2820669895   0.000000005167 0.00001414  0.00000023  0.0000076 0.0000
 23  -1404.2820669860   0.000000003473 0.00000868  0.00000014  0.0000071 0.0000
                            ***DIIS convergence achieved***

               *****************************************************
               *                     SUCCESS                       *
               *           SCF CONVERGED AFTER  24 CYCLES          *
               *****************************************************

Setting up the final grid:

General Integration Accuracy     IntAcc      ...  4.670
Radial Grid Type                 RadialGrid  ... Gauss-Chebyshev
Angular Grid (max. acc.)         AngularGrid ... Lebedev-302
Angular grid pruning method      GridPruning ... 3 (G Style)
Weight generation scheme         WeightScheme... Becke
Basis function cutoff            BFCut       ...    1.0000e-11
Integration weight cutoff        WCut        ...    1.0000e-14
Grids for H and He will be reduced by one unit

# of grid points (after initial pruning)     ...  16402 (   0.0 sec)
# of grid points (after weights+screening)   ...  16373 (   0.0 sec)
nearest neighbour list constructed           ...    0.0 sec
Grid point re-assignment to atoms done       ...    0.0 sec
Grid point division into batches done        ...    0.1 sec
Reduced shell lists constructed in    0.1 sec

Total number of grid points                  ...    16373
Total number of batches                      ...      257
Average number of points per batch           ...       63
Average number of grid points per atom       ...     8186
Average number of shells per batch           ...    18.17 (44.31%)
Average number of basis functions per batch  ...    47.17 (32.98%)
Average number of large shells per batch     ...    11.50 (63.30%)
Average number of large basis fcns per batch ...    28.83 (61.13%)
Maximum spatial batch extension              ...  24.49, 24.19, 18.13 au
Average spatial batch extension              ...   0.85,  0.84,  0.65 au

Final grid set up in    0.1 sec
Final integration                            ... done (   0.0 sec)
Change in XC energy                          ...     0.000652688
Integrated number of electrons               ...    39.999998031
Previous integrated no of electrons          ...    39.999840854

----------------
TOTAL SCF ENERGY
----------------

Total Energy       :        -1404.28141431 Eh          -38212.43997 eV

Components:
Nuclear Repulsion  :          103.45414422 Eh            2815.13038 eV
Electronic Energy  :        -1507.73555853 Eh          -41027.57035 eV
One Electron Energy:        -2139.09559193 Eh          -58207.75028 eV
Two Electron Energy:          631.36003340 Eh           17180.17993 eV

Virial components:
Potential Energy   :        -2806.08070250 Eh          -76357.33785 eV
Kinetic Energy     :         1401.79928819 Eh           38144.89788 eV
Virial Ratio       :            2.00177067


DFT components:
N(Alpha)           :       21.999998955407 electrons
N(Beta)            :       17.999999075890 electrons
N(Total)           :       39.999998031296 electrons
E(X)               :      -72.097420703396 Eh       
E(C)               :       -1.623039330105 Eh       
E(XC)              :      -73.720460033501 Eh       
DFET-embed. en.    :        0.000000000000 Eh       

---------------
SCF CONVERGENCE
---------------

  Last Energy change         ...   -9.4592e-09  Tolerance :   1.0000e-08
  Last MAX-Density change    ...    1.0932e-06  Tolerance :   1.0000e-07
  Last RMS-Density change    ...    2.4516e-08  Tolerance :   5.0000e-09
  Last DIIS Error            ...    4.1754e-07  Tolerance :   5.0000e-07

             **** THE GBW FILE WAS UPDATED (15_VCl.gbw) ****
             **** DENSITY FILE WAS UPDATED (15_VCl.scfp) ****
             **** ENERGY FILE WAS UPDATED (15_VCl.en.tmp) ****
----------------------
UHF SPIN CONTAMINATION
----------------------

Warning: in a DFT calculation there is little theoretical justification to 
         calculate <S**2> as in Hartree-Fock theory. We will do it anyways
         but you should keep in mind that the values have only limited relevance

Expectation value of <S**2>     :     6.012414
Ideal value S*(S+1) for S=2.0   :     6.000000
Deviation                       :     0.012414

             **** THE GBW FILE WAS UPDATED (15_VCl.gbw) ****
             **** DENSITY FILE WAS UPDATED (15_VCl.scfp) ****
----------------
ORBITAL ENERGIES
----------------
                 SPIN UP ORBITALS
  NO   OCC          E(Eh)            E(eV) 
   0   1.0000    -196.078633     -5335.5709 
   1   1.0000    -100.994327     -2748.1954 
   2   1.0000     -21.853623      -594.6673 
   3   1.0000     -18.373749      -499.9751 
   4   1.0000     -18.370366      -499.8831 
   5   1.0000     -18.364460      -499.7224 
   6   1.0000      -9.225150      -251.0291 
   7   1.0000      -6.999941      -190.4781 
   8   1.0000      -6.999696      -190.4714 
   9   1.0000      -6.998533      -190.4398 
  10   1.0000      -2.506180       -68.1966 
  11   1.0000      -1.578222       -42.9456 
  12   1.0000      -1.564872       -42.5823 
  13   1.0000      -1.555828       -42.3362 
  14   1.0000      -0.733347       -19.9554 
  15   1.0000      -0.326816        -8.8931 
  16   1.0000      -0.301657        -8.2085 
  17   1.0000      -0.301139        -8.1944 
  18   1.0000      -0.170228        -4.6321 
  19   1.0000      -0.148592        -4.0434 
  20   1.0000      -0.147664        -4.0181 
  21   1.0000      -0.144628        -3.9355 
  22   0.0000      -0.120152        -3.2695 
  23   0.0000      -0.095932        -2.6104 
  24   0.0000      -0.035489        -0.9657 
  25   0.0000      -0.032690        -0.8895 
  26   0.0000       0.000430         0.0117 
  27   0.0000       0.001398         0.0380 
  28   0.0000       0.020781         0.5655 
  29   0.0000       0.022154         0.6028 
  30   0.0000       0.034526         0.9395 
  31   0.0000       0.034570         0.9407 
  32   0.0000       0.037111         1.0098 
  33   0.0000       0.037476         1.0198 
  34   0.0000       0.038389         1.0446 
  35   0.0000       0.056450         1.5361 
  36   0.0000       0.085760         2.3336 
  37   0.0000       0.113922         3.1000 
  38   0.0000       0.114803         3.1240 
  39   0.0000       0.117324         3.1926 
  40   0.0000       0.133768         3.6400 
  41   0.0000       0.135358         3.6833 
  42   0.0000       0.159115         4.3297 
  43   0.0000       0.160116         4.3570 
  44   0.0000       0.164749         4.4830 
  45   0.0000       0.173255         4.7145 
  46   0.0000       0.178963         4.8698 
  47   0.0000       0.214652         5.8410 
  48   0.0000       0.239752         6.5240 
  49   0.0000       0.240551         6.5457 
  50   0.0000       0.297244         8.0884 
  51   0.0000       0.329087         8.9549 
  52   0.0000       0.329750         8.9730 
  53   0.0000       0.365164         9.9366 
  54   0.0000       0.366587         9.9753 
  55   0.0000       0.366882         9.9834 
  56   0.0000       0.419457        11.4140 
  57   0.0000       0.447716        12.1830 
  58   0.0000       0.452130        12.3031 
  59   0.0000       0.456638        12.4257 
  60   0.0000       0.474169        12.9028 
  61   0.0000       0.529778        14.4160 
  62   0.0000       0.559933        15.2365 
  63   0.0000       0.562555        15.3079 
  64   0.0000       0.585735        15.9386 
  65   0.0000       0.587795        15.9947 
  66   0.0000       0.651136        17.7183 
  67   0.0000       0.651580        17.7304 
  68   0.0000       0.696451        18.9514 
  69   0.0000       0.724816        19.7232 
  70   0.0000       0.724955        19.7270 
  71   0.0000       0.742485        20.2040 
  72   0.0000       0.743765        20.2389 
  73   0.0000       0.774052        21.0630 
  74   0.0000       0.878358        23.9013 
  75   0.0000       0.885165        24.0866 
  76   0.0000       0.896477        24.3944 
  77   0.0000       0.904274        24.6065 
  78   0.0000       0.991057        26.9680 
  79   0.0000       0.991165        26.9710 
  80   0.0000       1.102404        29.9979 
  81   0.0000       1.103553        30.0292 
  82   0.0000       1.266645        34.4672 
  83   0.0000       1.276640        34.7391 
  84   0.0000       1.312407        35.7124 
  85   0.0000       1.321550        35.9612 
  86   0.0000       1.322581        35.9893 
  87   0.0000       1.385664        37.7058 
  88   0.0000       1.388283        37.7771 
  89   0.0000       1.502473        40.8844 
  90   0.0000       1.580673        43.0123 
  91   0.0000       1.589623        43.2558 
  92   0.0000       1.621856        44.1330 
  93   0.0000       1.628049        44.3015 
  94   0.0000       1.631669        44.4000 
  95   0.0000       1.637593        44.5612 
  96   0.0000       1.847470        50.2722 
  97   0.0000       1.852002        50.3955 
  98   0.0000       1.886208        51.3263 
  99   0.0000       1.933918        52.6246 
 100   0.0000       1.942090        52.8469 
 101   0.0000       2.061802        56.1045 
 102   0.0000       2.148563        58.4654 
 103   0.0000       2.154224        58.6194 
 104   0.0000       2.166817        58.9621 
 105   0.0000       2.220355        60.4189 
 106   0.0000       2.227801        60.6216 
 107   0.0000       2.300306        62.5945 
 108   0.0000       2.325521        63.2806 
 109   0.0000       2.328017        63.3486 
 110   0.0000       2.584085        70.3165 
 111   0.0000       2.585695        70.3603 
 112   0.0000       2.622229        71.3545 
 113   0.0000       2.712177        73.8021 
 114   0.0000       2.714939        73.8773 
 115   0.0000       2.738797        74.5265 
 116   0.0000       2.738798        74.5265 
 117   0.0000       2.817479        76.6675 
 118   0.0000       2.824768        76.8659 
 119   0.0000       2.913680        79.2853 
 120   0.0000       2.923202        79.5444 
 121   0.0000       2.925101        79.5960 
 122   0.0000       3.059663        83.2577 
 123   0.0000       3.062432        83.3330 
 124   0.0000       3.316286        90.2407 
 125   0.0000       3.803680       103.5034 
 126   0.0000       4.780472       130.0833 
 127   0.0000       4.780564       130.0858 
 128   0.0000       4.796724       130.5255 
 129   0.0000       4.801864       130.6654 
 130   0.0000       4.982607       135.5836 
 131   0.0000       4.987006       135.7033 
 132   0.0000       5.127011       139.5131 
 133   0.0000       5.130916       139.6193 
 134   0.0000       5.138683       139.8307 
 135   0.0000       5.139230       139.8456 
 136   0.0000       5.213989       141.8799 
 137   0.0000       5.223812       142.1472 
 138   0.0000       5.316194       144.6610 
 139   0.0000       5.319328       144.7463 
 140   0.0000       5.329330       145.0184 
 141   0.0000       5.505627       149.8157 
 142   0.0000       6.401465       174.1927 

                 SPIN DOWN ORBITALS
  NO   OCC          E(Eh)            E(eV) 
   0   1.0000    -196.077978     -5335.5530 
   1   1.0000    -100.994757     -2748.2071 
   2   1.0000     -21.818644      -593.7155 
   3   1.0000     -18.351592      -499.3722 
   4   1.0000     -18.341496      -499.0975 
   5   1.0000     -18.330817      -498.8069 
   6   1.0000      -9.225517      -251.0391 
   7   1.0000      -7.000860      -190.5031 
   8   1.0000      -7.000610      -190.4963 
   9   1.0000      -6.998325      -190.4341 
  10   1.0000      -2.401036       -65.3355 
  11   1.0000      -1.491243       -40.5788 
  12   1.0000      -1.456235       -39.6262 
  13   1.0000      -1.428371       -38.8680 
  14   1.0000      -0.733087       -19.9483 
  15   1.0000      -0.317279        -8.6336 
  16   1.0000      -0.298110        -8.1120 
  17   1.0000      -0.290996        -7.9184 
  18   0.0000      -0.091463        -2.4888 
  19   0.0000      -0.068396        -1.8611 
  20   0.0000      -0.047615        -1.2957 
  21   0.0000      -0.038886        -1.0581 
  22   0.0000      -0.034555        -0.9403 
  23   0.0000      -0.033542        -0.9127 
  24   0.0000       0.003944         0.1073 
  25   0.0000       0.008269         0.2250 
  26   0.0000       0.010618         0.2889 
  27   0.0000       0.019465         0.5297 
  28   0.0000       0.038385         1.0445 
  29   0.0000       0.040167         1.0930 
  30   0.0000       0.054367         1.4794 
  31   0.0000       0.055581         1.5124 
  32   0.0000       0.056274         1.5313 
  33   0.0000       0.059086         1.6078 
  34   0.0000       0.059148         1.6095 
  35   0.0000       0.066431         1.8077 
  36   0.0000       0.117711         3.2031 
  37   0.0000       0.124512         3.3881 
  38   0.0000       0.126235         3.4350 
  39   0.0000       0.127443         3.4679 
  40   0.0000       0.166675         4.5355 
  41   0.0000       0.168879         4.5954 
  42   0.0000       0.192136         5.2283 
  43   0.0000       0.193078         5.2539 
  44   0.0000       0.194100         5.2817 
  45   0.0000       0.203625         5.5409 
  46   0.0000       0.207509         5.6466 
  47   0.0000       0.225686         6.1412 
  48   0.0000       0.256593         6.9823 
  49   0.0000       0.256632         6.9833 
  50   0.0000       0.323993         8.8163 
  51   0.0000       0.338999         9.2246 
  52   0.0000       0.344302         9.3689 
  53   0.0000       0.381433        10.3793 
  54   0.0000       0.405824        11.0430 
  55   0.0000       0.407082        11.0773 
  56   0.0000       0.458672        12.4811 
  57   0.0000       0.478031        13.0079 
  58   0.0000       0.478253        13.0139 
  59   0.0000       0.490339        13.3428 
  60   0.0000       0.493694        13.4341 
  61   0.0000       0.559333        15.2202 
  62   0.0000       0.598647        16.2900 
  63   0.0000       0.603117        16.4116 
  64   0.0000       0.609181        16.5767 
  65   0.0000       0.616820        16.7845 
  66   0.0000       0.692411        18.8415 
  67   0.0000       0.693588        18.8735 
  68   0.0000       0.712891        19.3987 
  69   0.0000       0.750970        20.4349 
  70   0.0000       0.751760        20.4564 
  71   0.0000       0.752171        20.4676 
  72   0.0000       0.757053        20.6005 
  73   0.0000       0.779285        21.2054 
  74   0.0000       0.918169        24.9847 
  75   0.0000       0.925146        25.1745 
  76   0.0000       0.927135        25.2286 
  77   0.0000       0.927938        25.2505 
  78   0.0000       0.994030        27.0489 
  79   0.0000       0.994115        27.0512 
  80   0.0000       1.117792        30.4167 
  81   0.0000       1.118626        30.4394 
  82   0.0000       1.299020        35.3481 
  83   0.0000       1.306762        35.5588 
  84   0.0000       1.335019        36.3277 
  85   0.0000       1.408145        38.3176 
  86   0.0000       1.408372        38.3238 
  87   0.0000       1.447935        39.4003 
  88   0.0000       1.450092        39.4590 
  89   0.0000       1.537057        41.8254 
  90   0.0000       1.640980        44.6533 
  91   0.0000       1.646856        44.8132 
  92   0.0000       1.651516        44.9400 
  93   0.0000       1.659621        45.1606 
  94   0.0000       1.683617        45.8135 
  95   0.0000       1.683744        45.8170 
  96   0.0000       1.878046        51.1042 
  97   0.0000       1.879217        51.1361 
  98   0.0000       1.902845        51.7790 
  99   0.0000       1.967436        53.5366 
 100   0.0000       1.978586        53.8401 
 101   0.0000       2.107218        57.3403 
 102   0.0000       2.219076        60.3841 
 103   0.0000       2.222691        60.4825 
 104   0.0000       2.222714        60.4831 
 105   0.0000       2.230192        60.6866 
 106   0.0000       2.232732        60.7557 
 107   0.0000       2.315447        63.0065 
 108   0.0000       2.325845        63.2895 
 109   0.0000       2.331275        63.4372 
 110   0.0000       2.595043        70.6147 
 111   0.0000       2.601289        70.7847 
 112   0.0000       2.686061        73.0914 
 113   0.0000       2.738820        74.5271 
 114   0.0000       2.738892        74.5290 
 115   0.0000       2.783421        75.7407 
 116   0.0000       2.788795        75.8870 
 117   0.0000       2.850599        77.5687 
 118   0.0000       2.854609        77.6779 
 119   0.0000       2.930152        79.7335 
 120   0.0000       2.966165        80.7135 
 121   0.0000       2.982496        81.1578 
 122   0.0000       3.088465        84.0414 
 123   0.0000       3.104776        84.4853 
 124   0.0000       3.377690        91.9116 
 125   0.0000       3.841601       104.5353 
 126   0.0000       4.912648       133.6800 
 127   0.0000       4.912877       133.6862 
 128   0.0000       4.912951       133.6882 
 129   0.0000       4.913394       133.7002 
 130   0.0000       5.067896       137.9045 
 131   0.0000       5.100160       138.7824 
 132   0.0000       5.218417       142.0003 
 133   0.0000       5.218616       142.0058 
 134   0.0000       5.220243       142.0500 
 135   0.0000       5.223003       142.1251 
 136   0.0000       5.286548       143.8543 
 137   0.0000       5.289069       143.9229 
 138   0.0000       5.377513       146.3296 
 139   0.0000       5.395745       146.8257 
 140   0.0000       5.404518       147.0644 
 141   0.0000       5.598169       152.3339 
 142   0.0000       6.406206       174.3217 

                    ********************************
                    * MULLIKEN POPULATION ANALYSIS *
                    ********************************

--------------------------------------------
MULLIKEN ATOMIC CHARGES AND SPIN POPULATIONS
--------------------------------------------
   0 V :    0.213284    4.005193
   1 Cl:   -0.213284   -0.005193
Sum of atomic charges         :   -0.0000000
Sum of atomic spin populations:    4.0000000

-----------------------------------------------------
MULLIKEN REDUCED ORBITAL CHARGES AND SPIN POPULATIONS
-----------------------------------------------------
CHARGE
  0 V s       :     6.723885  s :     6.723885
      pz      :     4.104414  p :    12.219268
      px      :     4.038555
      py      :     4.076300
      dz2     :     0.678365  d :     3.808018
      dxz     :     0.182433
      dyz     :     1.017692
      dx2y2   :     0.933712
      dxy     :     0.995816
      f0      :     0.005015  f :     0.029198
      f+1     :     0.011821
      f-1     :     0.012095
      f+2     :     0.000250
      f-2     :    -0.000013
      f+3     :     0.000010
      f-3     :     0.000019
      g0      :     0.001510  g :     0.006346
      g+1     :     0.002364
      g-1     :     0.002398
      g+2     :     0.000050
      g-2     :     0.000007
      g+3     :     0.000001
      g-3     :     0.000006
      g+4     :     0.000005
      g-4     :     0.000005
  1 Cls       :     5.971487  s :     5.971487
      pz      :     3.572850  p :    11.209890
      px      :     3.759570
      py      :     3.877471
      dz2     :     0.003257  d :     0.029517
      dxz     :     0.005199
      dyz     :     0.013981
      dx2y2   :     0.003604
      dxy     :     0.003475
      f0      :     0.000892  f :     0.002390
      f+1     :     0.000044
      f-1     :     0.000036
      f+2     :     0.000702
      f-2     :     0.000710
      f+3     :     0.000003
      f-3     :     0.000003

SPIN
  0 V s       :     0.582352  s :     0.582352
      pz      :     0.029980  p :     0.087806
      px      :     0.009224
      py      :     0.048602
      dz2     :     0.457584  d :     3.334957
      dxz     :     0.044822
      dyz     :     0.903126
      dx2y2   :     0.933608
      dxy     :     0.995816
      f0      :    -0.000955  f :     0.001199
      f+1     :     0.000223
      f-1     :     0.001752
      f+2     :     0.000188
      f-2     :    -0.000013
      f+3     :    -0.000004
      f-3     :     0.000007
      g0      :    -0.000196  g :    -0.001120
      g+1     :    -0.000597
      g-1     :    -0.000389
      g+2     :     0.000040
      g-2     :     0.000007
      g+3     :    -0.000000
      g-3     :     0.000004
      g+4     :     0.000005
      g-4     :     0.000005
  1 Cls       :     0.016650  s :     0.016650
      pz      :    -0.028389  p :    -0.045954
      px      :    -0.054765
      py      :     0.037200
      dz2     :     0.003906  d :     0.021475
      dxz     :     0.000910
      dyz     :     0.009602
      dx2y2   :     0.003582
      dxy     :     0.003475
      f0      :     0.000949  f :     0.002636
      f+1     :     0.000189
      f-1     :     0.000097
      f+2     :     0.000696
      f-2     :     0.000710
      f+3     :    -0.000003
      f-3     :    -0.000003


                     *******************************
                     * LOEWDIN POPULATION ANALYSIS *
                     *******************************

-------------------------------------------
LOEWDIN ATOMIC CHARGES AND SPIN POPULATIONS
-------------------------------------------
   0 V :   -0.157832    3.829614
   1 Cl:    0.157832    0.170386

----------------------------------------------------
LOEWDIN REDUCED ORBITAL CHARGES AND SPIN POPULATIONS
----------------------------------------------------
CHARGE
  0 V s       :     6.438874  s :     6.438874
      pz      :     4.188750  p :    12.289138
      px      :     4.010151
      py      :     4.090237
      dz2     :     0.839092  d :     4.030251
      dxz     :     0.262618
      dyz     :     1.030325
      dx2y2   :     0.918648
      dxy     :     0.979567
      f0      :     0.119060  f :     0.331040
      f+1     :     0.096835
      f-1     :     0.113466
      f+2     :     0.000995
      f-2     :     0.000655
      f+3     :     0.000010
      f-3     :     0.000019
      g0      :     0.021849  g :     0.068528
      g+1     :     0.021967
      g-1     :     0.024505
      g+2     :     0.000103
      g-2     :     0.000088
      g+3     :     0.000001
      g-3     :     0.000006
      g+4     :     0.000005
      g-4     :     0.000005
  1 Cls       :     5.506103  s :     5.506103
      pz      :     3.702997  p :    10.879848
      px      :     3.552715
      py      :     3.624136
      dz2     :     0.164096  d :     0.297395
      dxz     :     0.033636
      dyz     :     0.077272
      dx2y2   :     0.010907
      dxy     :     0.011484
      f0      :     0.080854  f :     0.158822
      f+1     :     0.022063
      f-1     :     0.040032
      f+2     :     0.007665
      f-2     :     0.008201
      f+3     :     0.000003
      f-3     :     0.000003

SPIN
  0 V s       :     0.516558  s :     0.516558
      pz      :     0.032487  p :     0.119628
      px      :     0.004218
      py      :     0.082922
      dz2     :     0.437569  d :     3.189756
      dxz     :     0.034389
      dyz     :     0.819685
      dx2y2   :     0.918545
      dxy     :     0.979567
      f0      :    -0.001240  f :     0.005014
      f+1     :    -0.005053
      f-1     :     0.009715
      f+2     :     0.000933
      f-2     :     0.000655
      f+3     :    -0.000004
      f-3     :     0.000007
      g0      :    -0.000477  g :    -0.001342
      g+1     :    -0.001574
      g-1     :     0.000514
      g+2     :     0.000093
      g-2     :     0.000088
      g+3     :    -0.000000
      g-3     :     0.000004
      g+4     :     0.000005
      g-4     :     0.000005
  1 Cls       :     0.030560  s :     0.030560
      pz      :     0.035131  p :     0.024371
      px      :    -0.033933
      py      :     0.023173
      dz2     :     0.008203  d :     0.077285
      dxz     :     0.001444
      dyz     :     0.045271
      dx2y2   :     0.010884
      dxy     :     0.011484
      f0      :     0.003088  f :     0.038169
      f+1     :     0.000515
      f-1     :     0.018711
      f+2     :     0.007658
      f-2     :     0.008201
      f+3     :    -0.000003
      f-3     :    -0.000002


                      *****************************
                      * MAYER POPULATION ANALYSIS *
                      *****************************

  NA   - Mulliken gross atomic population
  ZA   - Total nuclear charge
  QA   - Mulliken gross atomic charge
  VA   - Mayer's total valence
  BVA  - Mayer's bonded valence
  FA   - Mayer's free valence

  ATOM       NA         ZA         QA         VA         BVA        FA
  0 V     22.7867    23.0000     0.2133     5.2177     1.4496     3.7681
  1 Cl    17.2133    17.0000    -0.2133     1.4616     1.4496     0.0121

  Mayer bond orders larger than 0.100000
B(  0-V ,  1-Cl) :   1.4496 

-------
TIMINGS
-------

Total SCF time: 0 days 0 hours 0 min 4 sec 

Total time                  ....       4.696 sec
Sum of individual times     ....       4.545 sec  ( 96.8%)

Fock matrix formation       ....       4.085 sec  ( 87.0%)
  Split-RI-J                ....       3.080 sec  ( 75.4% of F)
  XC integration            ....       0.893 sec  ( 21.8% of F)
    Basis function eval.    ....       0.073 sec  (  8.2% of XC)
    Density eval.           ....       0.076 sec  (  8.5% of XC)
    XC-Functional eval.     ....       0.017 sec  (  1.9% of XC)
    XC-Potential eval.      ....       0.243 sec  ( 27.3% of XC)
Diagonalization             ....       0.125 sec  (  2.7%)
Density matrix formation    ....       0.016 sec  (  0.3%)
Population analysis         ....       0.007 sec  (  0.1%)
Initial guess               ....       0.123 sec  (  2.6%)
Orbital Transformation      ....       0.000 sec  (  0.0%)
Orbital Orthonormalization  ....       0.000 sec  (  0.0%)
DIIS solution               ....       0.048 sec  (  1.0%)
Grid generation             ....       0.141 sec  (  3.0%)


-------------------------------------------------------------------------------
                          DFT DISPERSION CORRECTION                            
                                                                               
                              DFTD3 V3.1  Rev 1                                
                          USING Becke-Johnson damping                          
-------------------------------------------------------------------------------
The TPSS functional is recognized
Active option DFTDOPT                   ...         4   

molecular C6(AA) [au] = 979.583297 


            DFT-D V3
 parameters
 s6 scaling factor         :     1.0000 
 a1 scaling factor         :     0.4535 
 s8 scaling factor         :     1.9435 
 a2 scaling factor         :     4.4752 
 ad hoc parameters k1-k3   :    16.0000     1.3333    -4.0000 

 Edisp/kcal,au: -1.159599326625  -0.001847938957 
 E6   /kcal   :  -0.390061921 
 E8   /kcal   :  -0.769537405 
 % E8         :  66.362353594 

-------------------------   ----------------
Dispersion correction           -0.001847939
-------------------------   ----------------


-------------------------   --------------------
FINAL SINGLE POINT ENERGY     -1404.283262246123
-------------------------   --------------------



           ************************************************************
           *        Program running with 24 parallel MPI-processes    *
           *              working on a common directory               *
           ************************************************************
------------------------------------------------------------------------------
                         ORCA SCF GRADIENT CALCULATION
------------------------------------------------------------------------------

Gradient of the Kohn-Sham DFT energy:
Kohn-Sham wavefunction type      ... UKS
Hartree-Fock exchange scaling    ...    0.000
Number of operators              ...    2
Number of atoms                  ...    2
Basis set dimensions             ...  143
Integral neglect threshold       ... 2.5e-11
Integral primitive cutoff        ... 2.5e-12

Nuclear repulsion gradient       ... done
One Electron Gradient            ... done
Pre-screening matrix             ... done
RI-J gradient                    ... done
Exchange-correlation gradient    ... done
Dispersion correction            ... done

------------------
CARTESIAN GRADIENT
------------------

   1   V   :   -0.000000009   -0.000000001    0.081551431
   2   Cl  :    0.000000008   -0.000000001   -0.081449680

Difference to translation invariance:
           :   -0.0000000008   -0.0000000022    0.0001017511

Norm of the cartesian gradient     ...    0.1152592135
RMS gradient                       ...    0.0470543769
MAX gradient                       ...    0.0815514311

-------
TIMINGS
-------

Total SCF gradient time            ...        4.552 sec

One electron gradient       ....       0.046 sec  (  1.0%)
Prescreening matrices       ....       3.642 sec  ( 80.0%)
RI-J Coulomb gradient       ....       0.258 sec  (  5.7%)
XC gradient                 ....       0.067 sec  (  1.5%)
------------------------------------------------------------------------------
                         ORCA GEOMETRY RELAXATION STEP
------------------------------------------------------------------------------

Reading the OPT-File                    .... done
Getting information on internals        .... done
Copying old internal coords+grads       .... done
Making the new internal coordinates     .... (new redundants).... done
Validating the new internal coordinates .... (new redundants).... done
Calculating the B-matrix                .... done
Calculating the G,G- and P matrices     .... done
Transforming gradient to internals      .... done
Projecting the internal gradient        .... done
Number of atoms                         ....   2
Number of internal coordinates          ....   1
Current Energy                          .... -1404.283262246 Eh
Current gradient norm                   ....     0.115259213 Eh/bohr
Maximum allowed component of the step   ....  0.300
Current trust radius                    ....  0.300
Evaluating the initial hessian          ....  (Almloef) done
Projecting the Hessian                  .... done
Forming the augmented Hessian           .... done
Diagonalizing the augmented Hessian     .... done
Last element of RFO vector              ....  0.998552769
Lowest eigenvalues of augmented Hessian:
 -0.004389512
Length of the computed step             ....  0.053858681
The final length of the internal step   ....  0.053858681
Converting the step to cartesian space:
 Initial RMS(Int)=    0.0538586815
Transforming coordinates:
 Iter   0:  RMS(Cart)=    0.0155476621 RMS(Int)=    0.0538586815
 Iter   1:  RMS(Cart)=    0.0000000000 RMS(Int)=    0.0000000000
done
Storing new coordinates                 .... done

                                .--------------------.
          ----------------------|Geometry convergence|-------------------------
          Item                value                   Tolerance       Converged
          ---------------------------------------------------------------------
          RMS gradient        0.0815005556            0.0001000000      NO
          MAX gradient        0.0815005556            0.0003000000      NO
          RMS step            0.0538586815            0.0020000000      NO
          MAX step            0.0538586815            0.0040000000      NO
          ........................................................
          Max(Bonds)      0.0285      Max(Angles)    0.00
          Max(Dihed)        0.00      Max(Improp)    0.00
          ---------------------------------------------------------------------

The optimization has not yet converged - more geometry cycles are needed


    ---------------------------------------------------------------------------
                         Redundant Internal Coordinates
                            (Angstroem and degrees)

        Definition                    Value    dE/dq     Step     New-Value
    ----------------------------------------------------------------------------
     1. B(Cl  1,V   0)                2.0000 -0.081501  0.0285    2.0285   
    ----------------------------------------------------------------------------

         *************************************************************
         *                GEOMETRY OPTIMIZATION CYCLE   2            *
         *************************************************************
---------------------------------
CARTESIAN COORDINATES (ANGSTROEM)
---------------------------------
  V      0.000000    0.000000   -0.014250
  Cl     0.000000    0.000000    2.014250

----------------------------
CARTESIAN COORDINATES (A.U.)
----------------------------
  NO LB      ZA    FRAG     MASS         X           Y           Z
   0 V    23.0000    0    50.940    0.000000    0.000000   -0.026929
   1 Cl   17.0000    0    35.453    0.000000    0.000000    3.806382

--------------------------------
INTERNAL COORDINATES (ANGSTROEM)
--------------------------------
 V      0   0   0     0.000000000000     0.00000000     0.00000000
 Cl     1   0   0     2.028500786714     0.00000000     0.00000000

---------------------------
INTERNAL COORDINATES (A.U.)
---------------------------
 V      0   0   0     0.000000000000     0.00000000     0.00000000
 Cl     1   0   0     3.833310949333     0.00000000     0.00000000



           ************************************************************
           *        Program running with 24 parallel MPI-processes    *
           *              working on a common directory               *
           ************************************************************
 One Electron integrals                  ... done
 Pre-screening matrix                    ... done


           ************************************************************
           *        Program running with 24 parallel MPI-processes    *
           *              working on a common directory               *
           ************************************************************

Diagonalization of the overlap matrix:
Smallest eigenvalue                        ... 5.130e-05
Time for diagonalization                   ...    0.006 sec
Threshold for overlap eigenvalues          ... 1.000e-08
Number of eigenvalues below threshold      ... 0
Time for construction of square roots      ...    0.002 sec
Total time needed                          ...    0.008 sec

-------------------
DFT GRID GENERATION
-------------------

General Integration Accuracy     IntAcc      ...  4.340
Radial Grid Type                 RadialGrid  ... Gauss-Chebyshev
Angular Grid (max. acc.)         AngularGrid ... Lebedev-110
Angular grid pruning method      GridPruning ... 3 (G Style)
Weight generation scheme         WeightScheme... Becke
Basis function cutoff            BFCut       ...    1.0000e-11
Integration weight cutoff        WCut        ...    1.0000e-14
Grids for H and He will be reduced by one unit

# of grid points (after initial pruning)     ...   4816 (   0.0 sec)
# of grid points (after weights+screening)   ...   4791 (   0.0 sec)
nearest neighbour list constructed           ...    0.0 sec
Grid point re-assignment to atoms done       ...    0.0 sec
Grid point division into batches done        ...    0.0 sec
Reduced shell lists constructed in    0.0 sec

Total number of grid points                  ...     4791
Total number of batches                      ...       76
Average number of points per batch           ...       63
Average number of grid points per atom       ...     2396
Average number of shells per batch           ...    24.40 (59.51%)
Average number of basis functions per batch  ...    82.80 (57.90%)
Average number of large shells per batch     ...    18.40 (75.41%)
Average number of large basis fcns per batch ...    55.20 (66.67%)
Maximum spatial batch extension              ...  18.79, 28.73, 16.15 au
Average spatial batch extension              ...   0.91,  1.26,  0.85 au

Time for grid setup =    0.020 sec

--------------
SCF ITERATIONS
--------------
ITER       Energy         Delta-E        Max-DP      RMS-DP      [F,P]     Damp
               ***  Starting incremental Fock matrix formation  ***
  0  -1404.2858524046   0.000000000000 0.00149202  0.00003710  0.0133191 0.7000
  1  -1404.2858919142  -0.000039509606 0.00097461  0.00002976  0.0093256 0.7000
                               ***Turning on DIIS***
  2  -1404.2859212180  -0.000029303861 0.00265336  0.00007531  0.0065222 0.0000
  3  -1404.2859880351  -0.000066817095 0.00233021  0.00004425  0.0011029 0.0000
  4  -1404.2859904570  -0.000002421866 0.00223823  0.00002256  0.0005888 0.0000
  5  -1404.2859910727  -0.000000615762 0.00098818  0.00001699  0.0006970 0.0000
  6  -1404.2859922759  -0.000001203143 0.00037504  0.00000627  0.0002309 0.0000
  7  -1404.2859924213  -0.000000145385 0.00020689  0.00000259  0.0001004 0.0000
  8  -1404.2859924931  -0.000000071795 0.00006246  0.00000102  0.0000351 0.0000
  9  -1404.2859925915  -0.000000098464 0.00002253  0.00000042  0.0000125 0.0000
 10  -1404.2859926844  -0.000000092884 0.00000978  0.00000015  0.0000044 0.0000
                            ***DIIS convergence achieved***

               *****************************************************
               *                     SUCCESS                       *
               *           SCF CONVERGED AFTER  11 CYCLES          *
               *****************************************************

Setting up the final grid:

General Integration Accuracy     IntAcc      ...  4.670
Radial Grid Type                 RadialGrid  ... Gauss-Chebyshev
Angular Grid (max. acc.)         AngularGrid ... Lebedev-302
Angular grid pruning method      GridPruning ... 3 (G Style)
Weight generation scheme         WeightScheme... Becke
Basis function cutoff            BFCut       ...    1.0000e-11
Integration weight cutoff        WCut        ...    1.0000e-14
Grids for H and He will be reduced by one unit

# of grid points (after initial pruning)     ...  16402 (   0.0 sec)
# of grid points (after weights+screening)   ...  16373 (   0.0 sec)
nearest neighbour list constructed           ...    0.0 sec
Grid point re-assignment to atoms done       ...    0.0 sec
Grid point division into batches done        ...    0.1 sec
Reduced shell lists constructed in    0.1 sec

Total number of grid points                  ...    16373
Total number of batches                      ...      256
Average number of points per batch           ...       63
Average number of grid points per atom       ...     8186
Average number of shells per batch           ...    18.17 (44.31%)
Average number of basis functions per batch  ...    47.17 (32.98%)
Average number of large shells per batch     ...    11.50 (63.30%)
Average number of large basis fcns per batch ...    28.83 (61.13%)
Maximum spatial batch extension              ...  24.49, 24.19, 18.13 au
Average spatial batch extension              ...   0.85,  0.84,  0.65 au

Final grid set up in    0.1 sec
Final integration                            ... done (   0.1 sec)
Change in XC energy                          ...     0.000672273
Integrated number of electrons               ...    39.999994044
Previous integrated no of electrons          ...    39.999908597
Total Energy       :        -1404.28532040 Eh          -38212.54626 eV
  Last Energy change         ...    1.6307e-08  Tolerance :   1.0000e-08
  Last MAX-Density change    ...    7.1572e-07  Tolerance :   1.0000e-07
             **** THE GBW FILE WAS UPDATED (15_VCl.gbw) ****
             **** DENSITY FILE WAS UPDATED (15_VCl.scfp) ****
             **** ENERGY FILE WAS UPDATED (15_VCl.en.tmp) ****
----------------------
UHF SPIN CONTAMINATION
----------------------

Warning: in a DFT calculation there is little theoretical justification to 
         calculate <S**2> as in Hartree-Fock theory. We will do it anyways
         but you should keep in mind that the values have only limited relevance

Expectation value of <S**2>     :     6.012561
Ideal value S*(S+1) for S=2.0   :     6.000000
Deviation                       :     0.012561

             **** THE GBW FILE WAS UPDATED (15_VCl.gbw) ****
             **** DENSITY FILE WAS UPDATED (15_VCl.scfp) ****
Total SCF time: 0 days 0 hours 0 min 2 sec 


-------------------------------------------------------------------------------
                          DFT DISPERSION CORRECTION                            
                                                                               
                              DFTD3 V3.1  Rev 1                                
                          USING Becke-Johnson damping                          
-------------------------------------------------------------------------------
-------------------------   ----------------
Dispersion correction           -0.001847959
-------------------------   ----------------


-------------------------   --------------------
FINAL SINGLE POINT ENERGY     -1404.287168354567
-------------------------   --------------------



           ************************************************************
           *        Program running with 24 parallel MPI-processes    *
           *              working on a common directory               *
           ************************************************************
------------------------------------------------------------------------------
                         ORCA SCF GRADIENT CALCULATION
------------------------------------------------------------------------------

Gradient of the Kohn-Sham DFT energy:
Kohn-Sham wavefunction type      ... UKS
Hartree-Fock exchange scaling    ...    0.000
Number of operators              ...    2
Number of atoms                  ...    2
Basis set dimensions             ...  143
Integral neglect threshold       ... 2.5e-11
Integral primitive cutoff        ... 2.5e-12

Nuclear repulsion gradient       ... done
One Electron Gradient            ... done
Pre-screening matrix             ... done
RI-J gradient                    ... done
Exchange-correlation gradient    ... done
Dispersion correction            ... done

------------------
CARTESIAN GRADIENT
------------------

   1   V   :    0.000000008    0.000000007    0.066097343
   2   Cl  :   -0.000000011   -0.000000011   -0.066241321

Difference to translation invariance:
           :   -0.0000000029   -0.0000000039   -0.0001439780

Norm of the cartesian gradient     ...    0.0935776221
RMS gradient                       ...    0.0382029042
MAX gradient                       ...    0.0662413210

-------
TIMINGS
-------

Total SCF gradient time            ...        4.540 sec

One electron gradient       ....       0.056 sec  (  1.2%)
Prescreening matrices       ....       3.629 sec  ( 79.9%)
RI-J Coulomb gradient       ....       0.256 sec  (  5.6%)
XC gradient                 ....       0.067 sec  (  1.5%)
------------------------------------------------------------------------------
                         ORCA GEOMETRY RELAXATION STEP
------------------------------------------------------------------------------

Reading the OPT-File                    .... done
Getting information on internals        .... done
Copying old internal coords+grads       .... done
Making the new internal coordinates     .... (new redundants).... done
Validating the new internal coordinates .... (new redundants).... done
Calculating the B-matrix                .... done
Calculating the G,G- and P matrices     .... done
Transforming gradient to internals      .... done
Projecting the internal gradient        .... done
Number of atoms                         ....   2
Number of internal coordinates          ....   1
Current Energy                          .... -1404.287168355 Eh
Current gradient norm                   ....     0.093577622 Eh/bohr
Maximum allowed component of the step   ....  0.300
Current trust radius                    ....  0.300
Updating the Hessian (BFGS)             .... done
Forming the augmented Hessian           .... done
Diagonalizing the augmented Hessian     .... done
Last element of RFO vector              ....  0.976420460
Lowest eigenvalues of augmented Hessian:
 -0.014629424
Length of the computed step             ....  0.221090694
The final length of the internal step   ....  0.221090694
Converting the step to cartesian space:
 Initial RMS(Int)=    0.2210906945
Transforming coordinates:
 Iter   0:  RMS(Cart)=    0.0577350269 RMS(Int)=    0.2000000000
 Iter   1:  RMS(Cart)=    0.0060883591 RMS(Int)=    0.0210906945
 Iter   2:  RMS(Cart)=    0.0000000000 RMS(Int)=    0.0000000000
done
Storing new coordinates                 .... done

                                .--------------------.
          ----------------------|Geometry convergence|-------------------------
          Item                value                   Tolerance       Converged
          ---------------------------------------------------------------------
          Energy change      -0.0039061084            0.0000050000      NO
          RMS gradient        0.0661693320            0.0001000000      NO
          MAX gradient        0.0661693320            0.0003000000      NO
          RMS step            0.2210906945            0.0020000000      NO
          MAX step            0.2210906945            0.0040000000      NO
          ........................................................
          Max(Bonds)      0.1170      Max(Angles)    0.00
          Max(Dihed)        0.00      Max(Improp)    0.00
          ---------------------------------------------------------------------

The optimization has not yet converged - more geometry cycles are needed


    ---------------------------------------------------------------------------
                         Redundant Internal Coordinates
                            (Angstroem and degrees)

        Definition                    Value    dE/dq     Step     New-Value
    ----------------------------------------------------------------------------
     1. B(Cl  1,V   0)                2.0285 -0.066169  0.1170    2.1455   
    ----------------------------------------------------------------------------

         *************************************************************
         *                GEOMETRY OPTIMIZATION CYCLE   3            *
         *************************************************************
---------------------------------
CARTESIAN COORDINATES (ANGSTROEM)
---------------------------------
  V      0.000000    0.000000   -0.072748
  Cl     0.000000    0.000000    2.072748

----------------------------
CARTESIAN COORDINATES (A.U.)
----------------------------
  NO LB      ZA    FRAG     MASS         X           Y           Z
   0 V    23.0000    0    50.940    0.000000    0.000000   -0.137475
   1 Cl   17.0000    0    35.453    0.000000    0.000000    3.916927

--------------------------------
INTERNAL COORDINATES (ANGSTROEM)
--------------------------------
 V      0   0   0     0.000000000000     0.00000000     0.00000000
 Cl     1   0   0     2.145496943203     0.00000000     0.00000000

---------------------------
INTERNAL COORDINATES (A.U.)
---------------------------
 V      0   0   0     0.000000000000     0.00000000     0.00000000
 Cl     1   0   0     4.054401643819     0.00000000     0.00000000



           ************************************************************
           *        Program running with 24 parallel MPI-processes    *
           *              working on a common directory               *
           ************************************************************
 One Electron integrals                  ... done
 Pre-screening matrix                    ... done


           ************************************************************
           *        Program running with 24 parallel MPI-processes    *
           *              working on a common directory               *
           ************************************************************

Diagonalization of the overlap matrix:
Smallest eigenvalue                        ... 5.902e-05
Time for diagonalization                   ...    0.006 sec
Threshold for overlap eigenvalues          ... 1.000e-08
Number of eigenvalues below threshold      ... 0
Time for construction of square roots      ...    0.002 sec
Total time needed                          ...    0.008 sec

-------------------
DFT GRID GENERATION
-------------------

General Integration Accuracy     IntAcc      ...  4.340
Radial Grid Type                 RadialGrid  ... Gauss-Chebyshev
Angular Grid (max. acc.)         AngularGrid ... Lebedev-110
Angular grid pruning method      GridPruning ... 3 (G Style)
Weight generation scheme         WeightScheme... Becke
Basis function cutoff            BFCut       ...    1.0000e-11
Integration weight cutoff        WCut        ...    1.0000e-14
Grids for H and He will be reduced by one unit

# of grid points (after initial pruning)     ...   4816 (   0.0 sec)
# of grid points (after weights+screening)   ...   4791 (   0.0 sec)
nearest neighbour list constructed           ...    0.0 sec
Grid point re-assignment to atoms done       ...    0.0 sec
Grid point division into batches done        ...    0.0 sec
Reduced shell lists constructed in    0.0 sec

Total number of grid points                  ...     4791
Total number of batches                      ...       76
Average number of points per batch           ...       63
Average number of grid points per atom       ...     2396
Average number of shells per batch           ...    24.40 (59.51%)
Average number of basis functions per batch  ...    82.80 (57.90%)
Average number of large shells per batch     ...    18.40 (75.41%)
Average number of large basis fcns per batch ...    55.20 (66.67%)
Maximum spatial batch extension              ...  18.79, 28.73, 16.39 au
Average spatial batch extension              ...   0.94,  1.26,  0.86 au

Time for grid setup =    0.019 sec

--------------
SCF ITERATIONS
--------------
ITER       Energy         Delta-E        Max-DP      RMS-DP      [F,P]     Damp
               ***  Starting incremental Fock matrix formation  ***
  0  -1404.2927550041   0.000000000000 0.00601782  0.00013348  0.0562966 0.7000
  1  -1404.2932660970  -0.000511092913 0.00370573  0.00011155  0.0394231 0.7000
                               ***Turning on DIIS***
  2  -1404.2936511152  -0.000385018252 0.01179686  0.00029318  0.0275761 0.0000
  3  -1404.2945360243  -0.000884909067 0.00771884  0.00014890  0.0039398 0.0000
  4  -1404.2945697722  -0.000033747859 0.00140838  0.00003081  0.0020924 0.0000
  5  -1404.2945855595  -0.000015787309 0.00565507  0.00008081  0.0007864 0.0000
  6  -1404.2945974088  -0.000011849316 0.00102827  0.00002041  0.0006428 0.0000
  7  -1404.2945985591  -0.000001150260 0.00138410  0.00001404  0.0003085 0.0000
  8  -1404.2945987298  -0.000000170779 0.00082425  0.00000996  0.0003911 0.0000
  9  -1404.2945992231  -0.000000493294 0.00023334  0.00000274  0.0000854 0.0000
 10  -1404.2945992653  -0.000000042126 0.00002725  0.00000034  0.0000133 0.0000
 11  -1404.2945992186   0.000000046699 0.00000766  0.00000011  0.0000113 0.0000
 12  -1404.2945992253  -0.000000006730 0.00000210  0.00000004  0.0000014 0.0000
                            ***DIIS convergence achieved***

               *****************************************************
               *                     SUCCESS                       *
               *           SCF CONVERGED AFTER  13 CYCLES          *
               *****************************************************

Setting up the final grid:

General Integration Accuracy     IntAcc      ...  4.670
Radial Grid Type                 RadialGrid  ... Gauss-Chebyshev
Angular Grid (max. acc.)         AngularGrid ... Lebedev-302
Angular grid pruning method      GridPruning ... 3 (G Style)
Weight generation scheme         WeightScheme... Becke
Basis function cutoff            BFCut       ...    1.0000e-11
Integration weight cutoff        WCut        ...    1.0000e-14
Grids for H and He will be reduced by one unit

# of grid points (after initial pruning)     ...  16402 (   0.0 sec)
# of grid points (after weights+screening)   ...  16375 (   0.0 sec)
nearest neighbour list constructed           ...    0.0 sec
Grid point re-assignment to atoms done       ...    0.0 sec
Grid point division into batches done        ...    0.1 sec
Reduced shell lists constructed in    0.1 sec

Total number of grid points                  ...    16375
Total number of batches                      ...      257
Average number of points per batch           ...       63
Average number of grid points per atom       ...     8188
Average number of shells per batch           ...    18.17 (44.31%)
Average number of basis functions per batch  ...    47.17 (32.98%)
Average number of large shells per batch     ...    11.50 (63.30%)
Average number of large basis fcns per batch ...    28.83 (61.13%)
Maximum spatial batch extension              ...  24.49, 24.19, 18.13 au
Average spatial batch extension              ...   0.84,  0.83,  0.66 au

Final grid set up in    0.1 sec
Final integration                            ... done (   0.1 sec)
Change in XC energy                          ...     0.000532133
Integrated number of electrons               ...    39.999998620
Previous integrated no of electrons          ...    40.000051126
Total Energy       :        -1404.29406713 Eh          -38212.78427 eV
  Last Energy change         ...   -4.0156e-08  Tolerance :   1.0000e-08
  Last MAX-Density change    ...    2.5540e-06  Tolerance :   1.0000e-07
             **** THE GBW FILE WAS UPDATED (15_VCl.gbw) ****
             **** DENSITY FILE WAS UPDATED (15_VCl.scfp) ****
             **** ENERGY FILE WAS UPDATED (15_VCl.en.tmp) ****
----------------------
UHF SPIN CONTAMINATION
----------------------

Warning: in a DFT calculation there is little theoretical justification to 
         calculate <S**2> as in Hartree-Fock theory. We will do it anyways
         but you should keep in mind that the values have only limited relevance

Expectation value of <S**2>     :     6.013238
Ideal value S*(S+1) for S=2.0   :     6.000000
Deviation                       :     0.013238

             **** THE GBW FILE WAS UPDATED (15_VCl.gbw) ****
             **** DENSITY FILE WAS UPDATED (15_VCl.scfp) ****
Total SCF time: 0 days 0 hours 0 min 2 sec 


-------------------------------------------------------------------------------
                          DFT DISPERSION CORRECTION                            
                                                                               
                              DFTD3 V3.1  Rev 1                                
                          USING Becke-Johnson damping                          
-------------------------------------------------------------------------------
-------------------------   ----------------
Dispersion correction           -0.001851375
-------------------------   ----------------


-------------------------   --------------------
FINAL SINGLE POINT ENERGY     -1404.295918507780
-------------------------   --------------------



           ************************************************************
           *        Program running with 24 parallel MPI-processes    *
           *              working on a common directory               *
           ************************************************************
------------------------------------------------------------------------------
                         ORCA SCF GRADIENT CALCULATION
------------------------------------------------------------------------------

Gradient of the Kohn-Sham DFT energy:
Kohn-Sham wavefunction type      ... UKS
Hartree-Fock exchange scaling    ...    0.000
Number of operators              ...    2
Number of atoms                  ...    2
Basis set dimensions             ...  143
Integral neglect threshold       ... 2.5e-11
Integral primitive cutoff        ... 2.5e-12

Nuclear repulsion gradient       ... done
One Electron Gradient            ... done
Pre-screening matrix             ... done
RI-J gradient                    ... done
Exchange-correlation gradient    ... done
Dispersion correction            ... done

------------------
CARTESIAN GRADIENT
------------------

   1   V   :    0.000000008    0.000000010    0.018362651
   2   Cl  :   -0.000000004    0.000000002   -0.018245063

Difference to translation invariance:
[...]
 113   0.0000       2.700031        73.4716 
 114   0.0000       2.703299        73.5605 
 115   0.0000       2.755155        74.9716 
 116   0.0000       2.755220        74.9734 
 117   0.0000       2.832009        77.0629 
 118   0.0000       2.832811        77.0847 
 119   0.0000       2.889039        78.6148 
 120   0.0000       2.898946        78.8843 
 121   0.0000       2.926629        79.6376 
 122   0.0000       2.971931        80.8703 
 123   0.0000       2.975073        80.9559 
 124   0.0000       3.203102        87.1608 
 125   0.0000       3.573076        97.2283 
 126   0.0000       4.765165       129.6667 
 127   0.0000       4.765579       129.6780 
 128   0.0000       4.772895       129.8771 
 129   0.0000       4.776796       129.9832 
 130   0.0000       4.877308       132.7183 
 131   0.0000       4.884089       132.9028 
 132   0.0000       5.113479       139.1448 
 133   0.0000       5.116253       139.2203 
 134   0.0000       5.120020       139.3228 
 135   0.0000       5.120784       139.3436 
 136   0.0000       5.177343       140.8827 
 137   0.0000       5.189664       141.2179 
 138   0.0000       5.196290       141.3983 
 139   0.0000       5.292038       144.0037 
 140   0.0000       5.295446       144.0964 
 141   0.0000       5.446753       148.2137 
 142   0.0000       6.231863       169.5776 

                 SPIN DOWN ORBITALS
  NO   OCC          E(Eh)            E(eV) 
   0   1.0000    -196.095678     -5336.0347 
   1   1.0000    -100.981931     -2747.8580 
   2   1.0000     -21.833589      -594.1222 
   3   1.0000     -18.365701      -499.7561 
   4   1.0000     -18.356473      -499.5050 
   5   1.0000     -18.347327      -499.2562 
   6   1.0000      -9.209606      -250.6061 
   7   1.0000      -6.985794      -190.0931 
   8   1.0000      -6.984511      -190.0582 
   9   1.0000      -6.982622      -190.0068 
  10   1.0000      -2.411671       -65.6249 
  11   1.0000      -1.493877       -40.6505 
  12   1.0000      -1.467530       -39.9335 
  13   1.0000      -1.442048       -39.2401 
  14   1.0000      -0.713001       -19.4017 
  15   1.0000      -0.301418        -8.2020 
  16   1.0000      -0.273389        -7.4393 
  17   1.0000      -0.267741        -7.2856 
  18   0.0000      -0.098056        -2.6682 
  19   0.0000      -0.079171        -2.1544 
  20   0.0000      -0.058663        -1.5963 
  21   0.0000      -0.048172        -1.3108 
  22   0.0000      -0.044878        -1.2212 
  23   0.0000      -0.043154        -1.1743 
  24   0.0000      -0.003140        -0.0854 
  25   0.0000       0.000945         0.0257 
  26   0.0000       0.010705         0.2913 
  27   0.0000       0.016331         0.4444 
  28   0.0000       0.035109         0.9554 
  29   0.0000       0.036551         0.9946 
  30   0.0000       0.053337         1.4514 
  31   0.0000       0.054705         1.4886 
  32   0.0000       0.054772         1.4904 
  33   0.0000       0.056655         1.5417 
  34   0.0000       0.056686         1.5425 
  35   0.0000       0.063592         1.7304 
  36   0.0000       0.111543         3.0352 
  37   0.0000       0.123111         3.3500 
  38   0.0000       0.125527         3.4158 
  39   0.0000       0.127004         3.4559 
  40   0.0000       0.162084         4.4105 
  41   0.0000       0.164198         4.4681 
  42   0.0000       0.179925         4.8960 
  43   0.0000       0.191546         5.2122 
  44   0.0000       0.192071         5.2265 
  45   0.0000       0.197891         5.3849 
  46   0.0000       0.202065         5.4985 
  47   0.0000       0.222720         6.0605 
  48   0.0000       0.254673         6.9300 
  49   0.0000       0.254999         6.9389 
  50   0.0000       0.297953         8.1077 
  51   0.0000       0.332538         9.0488 
  52   0.0000       0.336474         9.1559 
  53   0.0000       0.366492         9.9728 
  54   0.0000       0.401383        10.9222 
  55   0.0000       0.401863        10.9352 
  56   0.0000       0.448825        12.2132 
  57   0.0000       0.462246        12.5784 
  58   0.0000       0.464497        12.6396 
  59   0.0000       0.489453        13.3187 
  60   0.0000       0.492411        13.3992 
  61   0.0000       0.549294        14.9470 
  62   0.0000       0.599245        16.3063 
  63   0.0000       0.604501        16.4493 
  64   0.0000       0.606527        16.5044 
  65   0.0000       0.613143        16.6845 
  66   0.0000       0.682217        18.5641 
  67   0.0000       0.703683        19.1482 
  68   0.0000       0.706102        19.2140 
  69   0.0000       0.746033        20.3006 
  70   0.0000       0.747286        20.3347 
  71   0.0000       0.757338        20.6082 
  72   0.0000       0.762026        20.7358 
  73   0.0000       0.776507        21.1298 
  74   0.0000       0.839451        22.8426 
  75   0.0000       0.847915        23.0729 
  76   0.0000       0.857128        23.3236 
  77   0.0000       0.892864        24.2961 
  78   0.0000       1.000672        27.2297 
  79   0.0000       1.000683        27.2300 
  80   0.0000       1.094315        29.7778 
  81   0.0000       1.095649        29.8141 
  82   0.0000       1.263888        34.3921 
  83   0.0000       1.271257        34.5927 
  84   0.0000       1.279447        34.8155 
  85   0.0000       1.398170        38.0461 
  86   0.0000       1.398414        38.0528 
  87   0.0000       1.416795        38.5530 
  88   0.0000       1.417466        38.5712 
  89   0.0000       1.459954        39.7274 
  90   0.0000       1.599792        43.5326 
  91   0.0000       1.609542        43.7979 
  92   0.0000       1.633229        44.4424 
  93   0.0000       1.637749        44.5654 
  94   0.0000       1.660373        45.1810 
  95   0.0000       1.660466        45.1836 
  96   0.0000       1.816056        49.4174 
  97   0.0000       1.818301        49.4785 
  98   0.0000       1.831456        49.8364 
  99   0.0000       1.907801        51.9139 
 100   0.0000       1.916692        52.1558 
 101   0.0000       1.954818        53.1933 
 102   0.0000       2.164700        58.9045 
 103   0.0000       2.193713        59.6940 
 104   0.0000       2.207777        60.0767 
 105   0.0000       2.220960        60.4354 
 106   0.0000       2.226204        60.5781 
 107   0.0000       2.346760        63.8586 
 108   0.0000       2.351493        63.9874 
 109   0.0000       2.367853        64.4326 
 110   0.0000       2.504559        68.1525 
 111   0.0000       2.535863        69.0043 
 112   0.0000       2.542221        69.1774 
 113   0.0000       2.754341        74.9494 
 114   0.0000       2.754381        74.9505 
 115   0.0000       2.790612        75.9364 
 116   0.0000       2.791901        75.9715 
 117   0.0000       2.845617        77.4332 
 118   0.0000       2.846248        77.4503 
 119   0.0000       2.930078        79.7315 
 120   0.0000       2.935410        79.8766 
 121   0.0000       2.946040        80.1658 
 122   0.0000       3.000869        81.6578 
 123   0.0000       3.020078        82.1805 
 124   0.0000       3.265247        88.8519 
 125   0.0000       3.622642        98.5771 
 126   0.0000       4.889590       133.0525 
 127   0.0000       4.891215       133.0967 
 128   0.0000       4.900033       133.3367 
 129   0.0000       4.900157       133.3400 
 130   0.0000       4.971580       135.2836 
 131   0.0000       5.005426       136.2046 
 132   0.0000       5.200251       141.5060 
 133   0.0000       5.200424       141.5107 
 134   0.0000       5.207689       141.7084 
 135   0.0000       5.209670       141.7623 
 136   0.0000       5.248701       142.8244 
 137   0.0000       5.251291       142.8949 
 138   0.0000       5.275229       143.5463 
 139   0.0000       5.351820       145.6304 
 140   0.0000       5.378048       146.3441 
 141   0.0000       5.538367       150.7066 
 142   0.0000       6.238386       169.7551 

                    ********************************
                    * MULLIKEN POPULATION ANALYSIS *
                    ********************************

--------------------------------------------
MULLIKEN ATOMIC CHARGES AND SPIN POPULATIONS
--------------------------------------------
   0 V :    0.370685    4.040053
   1 Cl:   -0.370685   -0.040053
Sum of atomic charges         :   -0.0000000
Sum of atomic spin populations:    4.0000000

-----------------------------------------------------
MULLIKEN REDUCED ORBITAL CHARGES AND SPIN POPULATIONS
-----------------------------------------------------
CHARGE
  0 V s       :     6.686674  s :     6.686674
      pz      :     4.106686  p :    12.190428
      px      :     4.028374
      py      :     4.055368
      dz2     :     0.683434  d :     3.728094
      dxz     :     0.129504
      dyz     :     1.010419
      dx2y2   :     0.906695
      dxy     :     0.998041
      f0      :     0.005890  f :     0.019692
      f+1     :     0.006147
      f-1     :     0.007103
      f+2     :     0.000410
      f-2     :     0.000115
      f+3     :     0.000009
      f-3     :     0.000018
      g0      :     0.001481  g :     0.004427
      g+1     :     0.001411
      g-1     :     0.001479
      g+2     :     0.000043
      g-2     :    -0.000003
      g+3     :     0.000001
      g-3     :     0.000006
      g+4     :     0.000004
      g-4     :     0.000005
  1 Cls       :     5.974495  s :     5.974495
      pz      :     3.629720  p :    11.373823
      px      :     3.828607
      py      :     3.915497
      dz2     :     0.002375  d :     0.020272
      dxz     :     0.005422
      dyz     :     0.009580
      dx2y2   :     0.001460
      dxy     :     0.001435
      f0      :     0.000259  f :     0.002094
      f+1     :     0.000522
      f-1     :     0.000528
      f+2     :     0.000375
      f-2     :     0.000406
      f+3     :     0.000003
      f-3     :     0.000002

SPIN
  0 V s       :     0.557728  s :     0.557728
      pz      :     0.038067  p :     0.080786
      px      :     0.007187
      py      :     0.035532
      dz2     :     0.519545  d :     3.401176
      dxz     :     0.038694
      dyz     :     0.938296
      dx2y2   :     0.906600
      dxy     :     0.998041
      f0      :    -0.000943  f :     0.001131
      f+1     :    -0.000143
      f-1     :     0.001755
      f+2     :     0.000342
      f-2     :     0.000115
      f+3     :    -0.000004
      f-3     :     0.000008
      g0      :    -0.000201  g :    -0.000768
      g+1     :    -0.000387
      g-1     :    -0.000223
      g+2     :     0.000032
      g-2     :    -0.000003
      g+3     :    -0.000000
      g-3     :     0.000006
      g+4     :     0.000004
      g-4     :     0.000005
  1 Cls       :     0.016557  s :     0.016557
      pz      :    -0.042015  p :    -0.068779
      px      :    -0.046182
      py      :     0.019417
      dz2     :     0.001975  d :     0.010642
      dxz     :     0.000704
      dyz     :     0.005083
      dx2y2   :     0.001446
      dxy     :     0.001435
      f0      :     0.000493  f :     0.001527
      f+1     :     0.000134
      f-1     :     0.000127
      f+2     :     0.000370
      f-2     :     0.000406
      f+3     :    -0.000002
      f-3     :    -0.000002


                     *******************************
                     * LOEWDIN POPULATION ANALYSIS *
                     *******************************

-------------------------------------------
LOEWDIN ATOMIC CHARGES AND SPIN POPULATIONS
-------------------------------------------
   0 V :   -0.066523    3.906830
   1 Cl:    0.066523    0.093170

----------------------------------------------------
LOEWDIN REDUCED ORBITAL CHARGES AND SPIN POPULATIONS
----------------------------------------------------
CHARGE
  0 V s       :     6.508392  s :     6.508392
      pz      :     4.185320  p :    12.294561
      px      :     4.029202
      py      :     4.080039
      dz2     :     0.814463  d :     3.940622
      dxz     :     0.202476
      dyz     :     1.032770
      dx2y2   :     0.900132
      dxy     :     0.990781
      f0      :     0.104022  f :     0.279251
      f+1     :     0.080807
      f-1     :     0.093034
      f+2     :     0.000848
      f-2     :     0.000513
      f+3     :     0.000009
      f-3     :     0.000018
      g0      :     0.017105  g :     0.043697
      g+1     :     0.012453
      g-1     :     0.014021
      g+2     :     0.000060
      g-2     :     0.000042
      g+3     :     0.000001
      g-3     :     0.000006
      g+4     :     0.000004
      g-4     :     0.000005
  1 Cls       :     5.576825  s :     5.576825
      pz      :     3.720198  p :    11.075841
      px      :     3.646816
      py      :     3.708827
      dz2     :     0.116804  d :     0.194054
      dxz     :     0.019195
      dyz     :     0.048254
      dx2y2   :     0.004710
      dxy     :     0.005093
      f0      :     0.047885  f :     0.086757
      f+1     :     0.009040
      f-1     :     0.023029
      f+2     :     0.003233
      f-2     :     0.003566
      f+3     :     0.000003
      f-3     :     0.000002

SPIN
  0 V s       :     0.507290  s :     0.507290
      pz      :     0.038624  p :     0.096865
      px      :     0.003990
      py      :     0.054251
      dz2     :     0.498964  d :     3.300268
      dxz     :     0.032363
      dyz     :     0.878123
      dx2y2   :     0.900037
      dxy     :     0.990781
      f0      :    -0.000966  f :     0.003300
      f+1     :    -0.003972
      f-1     :     0.006939
      f+2     :     0.000781
      f-2     :     0.000513
      f+3     :    -0.000004
      f-3     :     0.000008
      g0      :    -0.000436  g :    -0.000893
      g+1     :    -0.000936
      g-1     :     0.000373
      g+2     :     0.000049
      g-2     :     0.000042
      g+3     :    -0.000000
      g-3     :     0.000006
      g+4     :     0.000004
      g-4     :     0.000005
  1 Cls       :     0.021120  s :     0.021120
      pz      :     0.017023  p :     0.000067
      px      :    -0.032660
      py      :     0.015704
      dz2     :     0.007177  d :     0.047969
      dxz     :     0.000880
      dyz     :     0.030124
      dx2y2   :     0.004696
      dxy     :     0.005093
      f0      :     0.002410  f :     0.024014
      f+1     :     0.000342
      f-1     :     0.014473
      f+2     :     0.003227
      f-2     :     0.003566
      f+3     :    -0.000002
      f-3     :    -0.000002


                      *****************************
                      * MAYER POPULATION ANALYSIS *
                      *****************************

  NA   - Mulliken gross atomic population
  ZA   - Total nuclear charge
  QA   - Mulliken gross atomic charge
  VA   - Mayer's total valence
  BVA  - Mayer's bonded valence
  FA   - Mayer's free valence

  ATOM       NA         ZA         QA         VA         BVA        FA
  0 V     22.6293    23.0000     0.3707     5.0257     1.1762     3.8494
  1 Cl    17.3707    17.0000    -0.3707     1.1833     1.1762     0.0071

  Mayer bond orders larger than 0.100000
B(  0-V ,  1-Cl) :   1.1762 

-------
TIMINGS
-------

Total SCF time: 0 days 0 hours 0 min 0 sec 

Total time                  ....       0.842 sec
Sum of individual times     ....       0.683 sec  ( 81.2%)

Fock matrix formation       ....       0.515 sec  ( 61.2%)
  Split-RI-J                ....       0.276 sec  ( 53.5% of F)
  XC integration            ....       0.068 sec  ( 13.2% of F)
    Basis function eval.    ....       0.009 sec  ( 12.7% of XC)
    Density eval.           ....       0.011 sec  ( 15.7% of XC)
    XC-Functional eval.     ....       0.002 sec  (  3.3% of XC)
    XC-Potential eval.      ....       0.030 sec  ( 43.7% of XC)
Diagonalization             ....       0.010 sec  (  1.2%)
Density matrix formation    ....       0.002 sec  (  0.2%)
Population analysis         ....       0.007 sec  (  0.9%)
Initial guess               ....       0.015 sec  (  1.7%)
Orbital Transformation      ....       0.000 sec  (  0.0%)
Orbital Orthonormalization  ....       0.009 sec  (  1.0%)
DIIS solution               ....       0.001 sec  (  0.2%)
Grid generation             ....       0.133 sec  ( 15.8%)


-------------------------------------------------------------------------------
                          DFT DISPERSION CORRECTION                            
                                                                               
                              DFTD3 V3.1  Rev 1                                
                          USING Becke-Johnson damping                          
-------------------------------------------------------------------------------
The TPSS functional is recognized
Active option DFTDOPT                   ...         4   

molecular C6(AA) [au] = 995.682079 


            DFT-D V3
 parameters
 s6 scaling factor         :     1.0000 
 a1 scaling factor         :     0.4535 
 s8 scaling factor         :     1.9435 
 a2 scaling factor         :     4.4752 
 ad hoc parameters k1-k3   :    16.0000     1.3333    -4.0000 

 Edisp/kcal,au: -1.166012958272  -0.001858159728 
 E6   /kcal   :  -0.390844430 
 E8   /kcal   :  -0.775168528 
 % E8         :  66.480267004 

-------------------------   ----------------
Dispersion correction           -0.001858160
-------------------------   ----------------


-------------------------   --------------------
FINAL SINGLE POINT ENERGY     -1404.296901586968
-------------------------   --------------------

                                *** OPTIMIZATION RUN DONE ***

                            ***************************************
                            *     ORCA property calculations      *
                            ***************************************

                                    ---------------------
                                    Active property flags
                                    ---------------------
   (+) Dipole Moment


------------------------------------------------------------------------------
                       ORCA ELECTRIC PROPERTIES CALCULATION
------------------------------------------------------------------------------

Dipole Moment Calculation                       ... on
Quadrupole Moment Calculation                   ... off
Polarizability Calculation                      ... off
GBWName                                         ... 15_VCl.gbw
Electron density file                           ... 15_VCl.scfp
The origin for moment calculation is the CENTER OF MASS  = ( 0.000000,  0.000000  1.515091)

-------------
DIPOLE MOMENT
-------------
                                X             Y             Z
Electronic contribution:      0.00000       0.00000      -4.04730
Nuclear contribution   :      0.00000       0.00000       2.44617
                        -----------------------------------------
Total Dipole Moment    :      0.00000       0.00000      -1.60113
                        -----------------------------------------
Magnitude (a.u.)       :      1.60113
Magnitude (Debye)      :      4.06976



--------------------
Rotational spectrum 
--------------------
 
Rotational constants in cm-1:     0.000000     0.164840     0.164840 
Rotational constants in MHz :     0.000000  4941.766851  4941.766851 

 Dipole components along the rotational axes: 
x,y,z [a.u.] :    -1.601133     0.000000     0.000000 
x,y,z [Debye]:    -4.069756     0.000000     0.000000 

 

Timings for individual modules:

Sum of individual times         ...       72.141 sec (=   1.202 min)
GTO integral calculation        ...       21.059 sec (=   0.351 min)  29.2 %
SCF iterations                  ...       21.046 sec (=   0.351 min)  29.2 %
SCF Gradient evaluation         ...       29.835 sec (=   0.497 min)  41.4 %
Geometry relaxation             ...        0.200 sec (=   0.003 min)   0.3 %
                             ****ORCA TERMINATED NORMALLY****
TOTAL RUN TIME: 0 days 0 hours 1 minutes 13 seconds 69 msec
