
                                 *****************
                                 * O   R   C   A *
                                 *****************

           --- An Ab Initio, DFT and Semiempirical electronic structure package ---

                  #######################################################
                  #                        -***-                        #
                  #          Department of theory and spectroscopy      #
                  #               Directorship: Frank Neese             #
                  #        Max Planck Institute fuer Kohlenforschung    #
                  #                Kaiser Wilhelm Platz 1               #
                  #                 D-45470 Muelheim/Ruhr               #
                  #                      Germany                        #
                  #                                                     #
                  #                  All rights reserved                #
                  #                        -***-                        #
                  #######################################################


                         Program Version 4.2.0 -  RELEASE  -


 With contributions from (in alphabetic order):
   Daniel Aravena         : Magnetic Suceptibility
   Michael Atanasov       : Ab Initio Ligand Field Theory (pilot matlab implementation)
   Alexander A. Auer      : GIAO ZORA, VPT2
   Ute Becker             : Parallelization
   Giovanni Bistoni       : ED, misc. LED, open-shell LED, HFLED
   Martin Brehm           : Molecular dynamics
   Dmytro Bykov           : SCF Hessian
   Vijay G. Chilkuri      : MRCI spin determinant printing, contributions to CSF-ICE
   Dipayan Datta          : RHF DLPNO-CCSD density
   Achintya Kumar Dutta   : EOM-CC, STEOM-CC
   Dmitry Ganyushin       : Spin-Orbit,Spin-Spin,Magnetic field MRCI
   Miquel Garcia          : C-PCM Hessian, Gaussian charge scheme
   Yang Guo               : DLPNO-NEVPT2, CIM, IAO-localization
   Andreas Hansen         : Spin unrestricted coupled pair/coupled cluster methods
   Benjamin Helmich-Paris : CASSCF linear response (MC-RPA)
   Lee Huntington         : MR-EOM, pCC
   Robert Izsak           : Overlap fitted RIJCOSX, COSX-SCS-MP3, EOM
   Christian Kollmar      : KDIIS, OOCD, Brueckner-CCSD(T), CCSD density
   Simone Kossmann        : Meta GGA functionals, TD-DFT gradient, OOMP2, MP2 Hessian
   Martin Krupicka        : AUTO-CI
   Lucas Lang             : DCDCAS
   Dagmar Lenk            : GEPOL surface, SMD
   Dimitrios Liakos       : Extrapolation schemes; Compound Job, initial MDCI parallelization
   Dimitrios Manganas     : Further ROCIS development; embedding schemes
   Dimitrios Pantazis     : SARC Basis sets
   Taras Petrenko         : DFT Hessian,TD-DFT gradient, ASA, ECA, R-Raman, ABS, FL, XAS/XES, NRVS
   Peter Pinski           : DLPNO-MP2, DLPNO-MP2 Gradient
   Christoph Reimann      : Effective Core Potentials
   Marius Retegan         : Local ZFS, SOC
   Christoph Riplinger    : Optimizer, TS searches, QM/MM, DLPNO-CCSD(T), (RO)-DLPNO pert. Triples
   Tobias Risthaus        : Range-separated hybrids, TD-DFT gradient, RPA, STAB
   Michael Roemelt        : Original ROCIS implementation
   Masaaki Saitow         : Open-shell DLPNO-CCSD energy and density
   Barbara Sandhoefer     : DKH picture change effects
   Avijit Sen             : IP-ROCIS
   Kantharuban Sivalingam : CASSCF convergence, NEVPT2, FIC-MRCI
   Bernardo de Souza      : ESD, SOC TD-DFT
   Georgi Stoychev        : AutoAux, RI-MP2 NMR
   Willem Van den Heuvel  : Paramagnetic NMR
   Boris Wezisla          : Elementary symmetry handling
   Frank Wennmohs         : Technical directorship


 We gratefully acknowledge several colleagues who have allowed us to
 interface, adapt or use parts of their codes:
   Stefan Grimme, W. Hujo, H. Kruse,             : VdW corrections, initial TS optimization,
                  C. Bannwarth                     DFT functionals, gCP, sTDA/sTD-DF
   Ed Valeev, F. Pavosevic, A. Kumar             : LibInt (2-el integral package), F12 methods
   Garnet Chan, S. Sharma, J. Yang, R. Olivares  : DMRG
   Ulf Ekstrom                                   : XCFun DFT Library
   Mihaly Kallay                                 : mrcc  (arbitrary order and MRCC methods)
   Andreas Klamt, Michael Diedenhofen            : otool_cosmo (COSMO solvation model)
   Jiri Pittner, Ondrej Demel                    : Mk-CCSD
   Frank Weinhold                                : gennbo (NPA and NBO analysis)
   Christopher J. Cramer and Donald G. Truhlar   : smd solvation model
   Lars Goerigk                                  : TD-DFT with DH, B97 family of functionals
   V. Asgeirsson, H. Jonsson                     : NEB implementation
   FAccTs GmbH                                   : IRC, NEB, NEB-TS, Multilevel, MM, QM/MM, CI optimization
   S Lehtola, MJT Oliveira, MAL Marques          : LibXC Library


 Your calculation uses the libint2 library for the computation of 2-el integrals
 For citations please refer to: http://libint.valeyev.net

 Your ORCA version has been built with support for libXC version: 4.2.3
 For citations please refer to: https://tddft.org/programs/libxc/

 This ORCA versions uses:
   CBLAS   interface :  Fast vector & matrix operations
   LAPACKE interface :  Fast linear algebra routines
   SCALAPACK package :  Parallel linear algebra routines


Your calculation utilizes the atom-pairwise dispersion correction
with the Becke-Johnson damping scheme (D3BJ)
Cite in your paper:
S.Grimme, S.Ehrlich, L.Goerigk, J Comput Chem, (2011), 32, 1456–1465 
S.Grimme, J.Antony, S.Ehrlich and H.Krieg, J.Chem.Phys., 132, (2010), 154104 
   

----- Orbital basis set information -----
Your calculation utilizes the basis: aug-cc-pVTZ 
    H, B-Ne : Obtained from the ccRepo (grant-hill.group.shef.ac.uk/ccrepo) Feb. 2017
              R. A. Kendall, T. H. Dunning, Jr., R. J. Harrison, J. Chem. Phys. 96, 6796 (1992)
         He : Obtained from the ccRepo (grant-hill.group.shef.ac.uk/ccrepo) Feb. 2017
              D. E. Woon, T. H. Dunning, Jr., J. Chem. Phys. 100, 2975 (1994)
  Li-Be, Na : Obtained from the ccRepo (grant-hill.group.shef.ac.uk/ccrepo) Feb. 2017
              B. P. Prascher, D. E. Woon, K. A. Peterson, T. H. Dunning, Jr., A. K. Wilson, Theor. Chem. Acc. 128, 69 (2011)
         Mg : Obtained from the Peterson Research Group Website (tyr0.chem.wsu.edu/~kipeters) Feb. 2017
              B. P. Prascher, D. E. Woon, K. A. Peterson, T. H. Dunning, Jr., A. K. Wilson, Theor. Chem. Acc. 128, 69 (2011)
      Al-Ar : Obtained from the ccRepo (grant-hill.group.shef.ac.uk/ccrepo) Feb. 2017
              D. E. Woon, T. H. Dunning, Jr., J. Chem. Phys. 98, 1358 (1993)
      Sc-Zn : Obtained from the ccRepo (grant-hill.group.shef.ac.uk/ccrepo) Feb. 2017
              N. B. Balabanov, K. A. Peterson, J. Chem. Phys. 123, 064107 (2005)
              N. B. Balabanov, K. A. Peterson, J. Chem. Phys. 125, 074110 (2006)
      Ga-Kr : Obtained from the ccRepo (grant-hill.group.shef.ac.uk/ccrepo) Feb. 2017
              A. K. Wilson, D. E. Woon, K. A. Peterson, T. H. Dunning, Jr., J. Chem. Phys. 110, 7667 (1999)
     Ag, Au : Obtained from the Peterson Research Group Website (tyr0.chem.wsu.edu/~kipeters) Feb. 2017
              K. A. Peterson, C. Puzzarini, Theor. Chem. Acc. 114, 283 (2005)

----- AuxJ basis set information -----
Your calculation utilizes the auxiliary basis: def2/J
   F. Weigend, Phys. Chem. Chem. Phys. 8, 1057 (2006).

================================================================================
                                        WARNINGS
                       Please study these warnings very carefully!
================================================================================


WARNING: your system is open-shell and RHF/RKS was chosen
  ===> : WILL SWITCH to UHF/UKS


WARNING: Geometry Optimization
  ===> : Switching off AutoStart
         For restart on a previous wavefunction, please use MOREAD

INFO   : the flag for use of LIBINT has been found!

================================================================================
                                       INPUT FILE
================================================================================
NAME = 16_VBr.in
|  1> #
|  2> # 16_VBr tpss/aug-cc-pvtz
|  3> #
|  4> ! tpss d3bj aug-cc-pvtz def2/j opt xyzfile
|  5> 
|  6> *xyz 0 5
|  7> V 0.0 0.0 0.0
|  8> Br 0.0 0.0 2.0
|  9> *
| 10> 
| 11> %pal
| 12> nprocs 24
| 13> end
| 14> 
| 15> 
| 16>                          ****END OF INPUT****
================================================================================

                       *****************************
                       * Geometry Optimization Run *
                       *****************************

Geometry optimization settings:
Update method            Update   .... BFGS
Choice of coordinates    CoordSys .... Z-matrix Internals
Initial Hessian          InHess   .... Almoef's Model

Convergence Tolerances:
Energy Change            TolE     ....  5.0000e-06 Eh
Max. Gradient            TolMAXG  ....  3.0000e-04 Eh/bohr
RMS Gradient             TolRMSG  ....  1.0000e-04 Eh/bohr
Max. Displacement        TolMAXD  ....  4.0000e-03 bohr
RMS Displacement         TolRMSD  ....  2.0000e-03 bohr
Strict Convergence                ....  False
------------------------------------------------------------------------------
                        ORCA OPTIMIZATION COORDINATE SETUP
------------------------------------------------------------------------------

The optimization will be done in new redundant internal coordinates
Making redundant internal coordinates   ...  (new redundants) done
Evaluating the initial hessian          ...  (Almloef) done
Evaluating the coordinates              ...  done
Calculating the B-matrix                .... done
Calculating the G-matrix                .... done
Diagonalizing the G-matrix              .... done
The first mode is                       ....    0
The number of degrees of freedom        ....    1

    -----------------------------------------------------------------
                    Redundant Internal Coordinates


    -----------------------------------------------------------------
         Definition                    Initial Value    Approx d2E/dq
    -----------------------------------------------------------------
      1. B(Br  1,V   0)                  2.0000         2.260171   
    -----------------------------------------------------------------

Number of atoms                         .... 2
Number of degrees of freedom            .... 1

         *************************************************************
         *                GEOMETRY OPTIMIZATION CYCLE   1            *
         *************************************************************
---------------------------------
CARTESIAN COORDINATES (ANGSTROEM)
---------------------------------
  V      0.000000    0.000000    0.000000
  Br     0.000000    0.000000    2.000000

----------------------------
CARTESIAN COORDINATES (A.U.)
----------------------------
  NO LB      ZA    FRAG     MASS         X           Y           Z
   0 V    23.0000    0    50.940    0.000000    0.000000    0.000000
   1 Br   35.0000    0    79.900    0.000000    0.000000    3.779452

--------------------------------
INTERNAL COORDINATES (ANGSTROEM)
--------------------------------
 V      0   0   0     0.000000000000     0.00000000     0.00000000
 Br     1   0   0     2.000000000000     0.00000000     0.00000000

---------------------------
INTERNAL COORDINATES (A.U.)
---------------------------
 V      0   0   0     0.000000000000     0.00000000     0.00000000
 Br     1   0   0     3.779452267843     0.00000000     0.00000000

---------------------
BASIS SET INFORMATION
---------------------
There are 2 groups of distinct atoms

 Group   1 Type V   : 116s77p23d3f2g contracted to 8s7p5d3f2g pattern {19191919191911/151515151511/77711/111/11}
 Group   2 Type Br  : 75s36p10d2f contracted to 7s6p4d2f pattern {18181818111/111111111/7111/11}

Atom   0V    basis set group =>   1
Atom   1Br   basis set group =>   2
---------------------------------
AUXILIARY/J BASIS SET INFORMATION
---------------------------------
There are 2 groups of distinct atoms

 Group   1 Type V   : 19s5p5d3f3g contracted to 8s5p5d2f3g pattern {121111111/11111/11111/21/111}
 Group   2 Type Br  : 19s5p5d3f1g contracted to 8s4p3d2f1g pattern {121111111/2111/311/21/1}

Atom   0V    basis set group =>   1
Atom   1Br   basis set group =>   2


           ************************************************************
           *        Program running with 24 parallel MPI-processes    *
           *              working on a common directory               *
           ************************************************************
------------------------------------------------------------------------------
                           ORCA GTO INTEGRAL CALCULATION
                           -- RI-GTO INTEGRALS CHOSEN --
------------------------------------------------------------------------------

                         BASIS SET STATISTICS AND STARTUP INFO

Gaussian basis set:
 # of primitive gaussian shells          ...  344
 # of primitive gaussian functions       ...  748
 # of contracted shells                  ...   44
 # of contracted basis functions         ...  152
 Highest angular momentum                ...    4
 Maximum contraction depth               ...   19
Auxiliary gaussian basis set:
 # of primitive gaussian shells          ...   68
 # of primitive gaussian functions       ...  196
 # of contracted shells                  ...   41
 # of contracted aux-basis functions     ...  147
 Highest angular momentum                ...    4
 Maximum contraction depth               ...   12
Ratio of auxiliary to basis functions    ...  0.97
Integral package used                  ... LIBINT
 One Electron integrals                  ... done
 Ordering auxiliary basis shells         ... done
 Integral threshhold             Thresh  ...  2.500e-11
 Primitive cut-off               TCut    ...  2.500e-12
 Pre-screening matrix                    ... done
 Shell pair data                         ... 
 Ordering of the shell pairs             ... done (   0.000 sec) 990 of 990 pairs
 Determination of significant pairs      ... done (   0.000 sec)
 Creation of shell pair data             ... done (   0.002 sec)
 Storage of shell pair data              ... done (   0.020 sec)
 Shell pair data done in (   0.022 sec)
 Computing two index integrals           ... done
 Cholesky decomposition of the V-matrix  ... done


Timings:
 Total evaluation time                   ...   3.913 sec (  0.065 min)
 One electron matrix time                ...   0.059 sec (  0.001 min) =  1.5%
 Schwartz matrix evaluation time         ...   3.800 sec (  0.063 min) = 97.1%
 Two index repulsion integral time       ...   0.001 sec (  0.000 min) =  0.0%
 Cholesky decomposition of V             ...   0.001 sec (  0.000 min) =  0.0%
 Three index repulsion integral time     ...   0.000 sec (  0.000 min) =  0.0%



           ************************************************************
           *        Program running with 24 parallel MPI-processes    *
           *              working on a common directory               *
           ************************************************************
-------------------------------------------------------------------------------
                                 ORCA SCF
-------------------------------------------------------------------------------

------------
SCF SETTINGS
------------
Hamiltonian:
 Density Functional     Method          .... DFT(GTOs)
 Exchange Functional    Exchange        .... TPSS
 Correlation Functional Correlation     .... TPSS
 LDA part of GGA corr.  LDAOpt          .... PW91-LDA
 Gradients option       PostSCFGGA      .... off
   Density functional embedding theory  .... OFF
   NL short-range parameter             ....  5.000000
 RI-approximation to the Coulomb term is turned on
   Number of auxiliary basis functions  .... 147


General Settings:
 Integral files         IntName         .... 16_VBr
 Hartree-Fock type      HFTyp           .... UHF
 Total Charge           Charge          ....    0
 Multiplicity           Mult            ....    5
 Number of Electrons    NEL             ....   58
 Basis Dimension        Dim             ....  152
 Nuclear Repulsion      ENuc            ....    212.9938263408 Eh

Convergence Acceleration:
 DIIS                   CNVDIIS         .... on
   Start iteration      DIISMaxIt       ....    12
   Startup error        DIISStart       ....  0.200000
   # of expansion vecs  DIISMaxEq       ....     5
   Bias factor          DIISBfac        ....   1.050
   Max. coefficient     DIISMaxC        ....  10.000
 Newton-Raphson         CNVNR           .... off
 SOSCF                  CNVSOSCF        .... off
 Level Shifting         CNVShift        .... on
   Level shift para.    LevelShift      ....    0.2500
   Turn off err/grad.   ShiftErr        ....    0.0010
 Zerner damping         CNVZerner       .... off
 Static damping         CNVDamp         .... on
   Fraction old density DampFac         ....    0.7000
   Max. Damping (<1)    DampMax         ....    0.9800
   Min. Damping (>=0)   DampMin         ....    0.0000
   Turn off err/grad.   DampErr         ....    0.1000
 Fernandez-Rico         CNVRico         .... off

SCF Procedure:
 Maximum # iterations   MaxIter         ....   125
 SCF integral mode      SCFMode         .... Direct
   Integral package                     .... LIBINT
 Reset frequency        DirectResetFreq ....    20
 Integral Threshold     Thresh          ....  2.500e-11 Eh
 Primitive CutOff       TCut            ....  2.500e-12 Eh

Convergence Tolerance:
 Convergence Check Mode ConvCheckMode   .... Total+1el-Energy
 Convergence forced     ConvForced      .... 0
 Energy Change          TolE            ....  1.000e-08 Eh
 1-El. energy change                    ....  1.000e-05 Eh
 DIIS Error             TolErr          ....  5.000e-07


Diagonalization of the overlap matrix:
Smallest eigenvalue                        ... 4.960e-05
Time for diagonalization                   ...    0.004 sec
Threshold for overlap eigenvalues          ... 1.000e-08
Number of eigenvalues below threshold      ... 0
Time for construction of square roots      ...    0.002 sec
Total time needed                          ...    0.007 sec

-------------------
DFT GRID GENERATION
-------------------

General Integration Accuracy     IntAcc      ...  4.340
Radial Grid Type                 RadialGrid  ... Gauss-Chebyshev
Angular Grid (max. acc.)         AngularGrid ... Lebedev-110
Angular grid pruning method      GridPruning ... 3 (G Style)
Weight generation scheme         WeightScheme... Becke
Basis function cutoff            BFCut       ...    1.0000e-11
Integration weight cutoff        WCut        ...    1.0000e-14
Grids for H and He will be reduced by one unit

# of grid points (after initial pruning)     ...   5862 (   0.0 sec)
# of grid points (after weights+screening)   ...   5836 (   0.0 sec)
nearest neighbour list constructed           ...    0.0 sec
Grid point re-assignment to atoms done       ...    0.0 sec
Grid point division into batches done        ...    0.0 sec
Reduced shell lists constructed in    0.0 sec

Total number of grid points                  ...     5836
Total number of batches                      ...       93
Average number of points per batch           ...       62
Average number of grid points per atom       ...     2918
Average number of shells per batch           ...    26.00 (59.09%)
Average number of basis functions per batch  ...    86.00 (56.58%)
Average number of large shells per batch     ...    18.80 (72.31%)
Average number of large basis fcns per batch ...    58.00 (67.44%)
Maximum spatial batch extension              ...  18.98, 28.73, 16.15 au
Average spatial batch extension              ...   0.75,  1.03,  0.69 au

Time for grid setup =    0.031 sec

------------------------------
INITIAL GUESS: MODEL POTENTIAL
------------------------------
Loading Hartree-Fock densities                     ... done
Calculating cut-offs                               ... done
Setting up the integral package                    ... done
Initializing the effective Hamiltonian             ... done
Starting the Coulomb interaction                   ... done (   0.0 sec)
Reading the grid                                   ... done
Mapping shells                                     ... done
Starting the XC term evaluation                    ... done (   0.0 sec)
  promolecular density results
     # of electrons  =     57.999843839
     EX              =   -133.303396864
     EC              =     -2.681313401
     EX+EC           =   -135.984710265
Transforming the Hamiltonian                       ... done (   0.0 sec)
Diagonalizing the Hamiltonian                      ... done (   0.0 sec)
Back transforming the eigenvectors                 ... done (   0.0 sec)
Now organizing SCF variables                       ... done
                      ------------------
                      INITIAL GUESS DONE (   0.2 sec)
                      ------------------
--------------
SCF ITERATIONS
--------------
ITER       Energy         Delta-E        Max-DP      RMS-DP      [F,P]     Damp
               ***  Starting incremental Fock matrix formation  ***
  0  -3517.9869903064   0.000000000000 0.17305312  0.00272259  0.1811007 0.7000
  1  -3518.0587082283  -0.071717921845 0.05826775  0.00077006  0.0447996 0.7000
                               ***Turning on DIIS***
  2  -3518.0701494251  -0.011441196846 0.17141369  0.00302511  0.0488844 0.0000
  3  -3518.1137167869  -0.043567361824 0.07055149  0.00135292  0.0297720 0.0000
  4  -3518.1159724565  -0.002255669511 0.04924237  0.00093042  0.0381154 0.0000
  5  -3518.1193804079  -0.003407951439 0.01244153  0.00026400  0.0115073 0.0000
  6  -3518.1198721093  -0.000491701385 0.00616564  0.00008751  0.0027504 0.0000
  7  -3518.1200073422  -0.000135232946 0.00531364  0.00005587  0.0019752 0.0000
  8  -3518.1200834625  -0.000076120318 0.00457816  0.00004355  0.0016933 0.0000
  9  -3518.1201353295  -0.000051866969 0.00403311  0.00003828  0.0014769 0.0000
 10  -3518.1201724886  -0.000037159134 0.00348043  0.00003094  0.0012872 0.0000
 11  -3518.1201989584  -0.000026469793 0.00295428  0.00003461  0.0010758 0.0000
 12  -3518.1202170106  -0.000018052137 0.01487701  0.00012895  0.0009765 0.0000
 13  -3518.1202517015  -0.000034690962 0.00084103  0.00001259  0.0018533 0.0000
 14  -3518.1202583536  -0.000006652097 0.00079230  0.00001023  0.0010403 0.0000
 15  -3518.1202610829  -0.000002729221 0.00117866  0.00001189  0.0004910 0.0000
 16  -3518.1202621628  -0.000001079965 0.00026122  0.00000377  0.0001427 0.0000
 17  -3518.1202621844  -0.000000021623 0.00025153  0.00000380  0.0001747 0.0000
 18  -3518.1202624282  -0.000000243727 0.00005112  0.00000080  0.0000541 0.0000
 19  -3518.1202624779  -0.000000049756 0.00002393  0.00000045  0.0000213 0.0000
               *** Restarting incremental Fock matrix formation ***
                                   *** Resetting DIIS ***
 20  -3518.1202622960   0.000000181938 0.00002986  0.00000040  0.0000267 0.0000
 21  -3518.1202622701   0.000000025918 0.00002075  0.00000031  0.0000171 0.0000
 22  -3518.1202622635   0.000000006594 0.00001037  0.00000019  0.0000081 0.0000
 23  -3518.1202622850  -0.000000021532 0.00000328  0.00000007  0.0000025 0.0000
                            ***DIIS convergence achieved***

               *****************************************************
               *                     SUCCESS                       *
               *           SCF CONVERGED AFTER  24 CYCLES          *
               *****************************************************

Setting up the final grid:

General Integration Accuracy     IntAcc      ...  4.670
Radial Grid Type                 RadialGrid  ... Gauss-Chebyshev
Angular Grid (max. acc.)         AngularGrid ... Lebedev-302
Angular grid pruning method      GridPruning ... 3 (G Style)
Weight generation scheme         WeightScheme... Becke
Basis function cutoff            BFCut       ...    1.0000e-11
Integration weight cutoff        WCut        ...    1.0000e-14
Grids for H and He will be reduced by one unit

# of grid points (after initial pruning)     ...  19280 (   0.0 sec)
# of grid points (after weights+screening)   ...  19251 (   0.0 sec)
nearest neighbour list constructed           ...    0.0 sec
Grid point re-assignment to atoms done       ...    0.0 sec
Grid point division into batches done        ...    0.1 sec
Reduced shell lists constructed in    0.1 sec

Total number of grid points                  ...    19251
Total number of batches                      ...      302
Average number of points per batch           ...       63
Average number of grid points per atom       ...     9626
Average number of shells per batch           ...    21.14 (48.05%)
Average number of basis functions per batch  ...    57.71 (37.97%)
Average number of large shells per batch     ...    13.79 (65.20%)
Average number of large basis fcns per batch ...    35.36 (61.26%)
Maximum spatial batch extension              ...  24.49, 24.19, 17.58 au
Average spatial batch extension              ...   0.85,  0.84,  0.66 au

Final grid set up in    0.2 sec
Final integration                            ... done (   0.1 sec)
Change in XC energy                          ...    -0.002394478
Integrated number of electrons               ...    58.000010550
Previous integrated no of electrons          ...    57.999746322

----------------
TOTAL SCF ENERGY
----------------

Total Energy       :        -3518.12265672 Eh          -95732.98446 eV

Components:
Nuclear Repulsion  :          212.99382634 Eh            5795.85667 eV
Electronic Energy  :        -3731.11648306 Eh         -101528.84113 eV
One Electron Energy:        -5304.59699882 Eh         -144345.42272 eV
Two Electron Energy:         1573.48051576 Eh           42816.58159 eV

Virial components:
Potential Energy   :        -7031.36054235 Eh         -191333.04754 eV
Kinetic Energy     :         3513.23788564 Eh           95600.06308 eV
Virial Ratio       :            2.00139039


DFT components:
N(Alpha)           :       31.000005679031 electrons
N(Beta)            :       27.000004870572 electrons
N(Total)           :       58.000010549603 electrons
E(X)               :     -134.033108277848 Eh       
E(C)               :       -2.680638892027 Eh       
E(XC)              :     -136.713747169875 Eh       
DFET-embed. en.    :        0.000000000000 Eh       

---------------
SCF CONVERGENCE
---------------

  Last Energy change         ...    4.6839e-08  Tolerance :   1.0000e-08
  Last MAX-Density change    ...    5.7519e-06  Tolerance :   1.0000e-07
  Last RMS-Density change    ...    5.7673e-08  Tolerance :   5.0000e-09
  Last DIIS Error            ...    3.6923e-07  Tolerance :   5.0000e-07

             **** THE GBW FILE WAS UPDATED (16_VBr.gbw) ****
             **** DENSITY FILE WAS UPDATED (16_VBr.scfp) ****
             **** ENERGY FILE WAS UPDATED (16_VBr.en.tmp) ****
----------------------
UHF SPIN CONTAMINATION
----------------------

Warning: in a DFT calculation there is little theoretical justification to 
         calculate <S**2> as in Hartree-Fock theory. We will do it anyways
         but you should keep in mind that the values have only limited relevance

Expectation value of <S**2>     :     6.015117
Ideal value S*(S+1) for S=2.0   :     6.000000
Deviation                       :     0.015117

             **** THE GBW FILE WAS UPDATED (16_VBr.gbw) ****
             **** DENSITY FILE WAS UPDATED (16_VBr.scfp) ****
----------------
ORBITAL ENERGIES
----------------
                 SPIN UP ORBITALS
  NO   OCC          E(Eh)            E(eV) 
   0   1.0000    -481.724439    -13108.3884 
   1   1.0000    -196.065715     -5335.2193 
   2   1.0000     -61.940234     -1685.4794 
   3   1.0000     -55.772917     -1517.6582 
   4   1.0000     -55.772609     -1517.6499 
   5   1.0000     -55.772570     -1517.6488 
   6   1.0000     -21.839742      -594.2896 
   7   1.0000     -18.359790      -499.5953 
   8   1.0000     -18.356751      -499.5126 
   9   1.0000     -18.350437      -499.3408 
  10   1.0000      -8.469303      -230.4614 
  11   1.0000      -6.307079      -171.6244 
  12   1.0000      -6.306092      -171.5975 
  13   1.0000      -6.305099      -171.5705 
  14   1.0000      -2.497942       -67.9725 
  15   1.0000      -2.476407       -67.3865 
  16   1.0000      -2.476088       -67.3778 
  17   1.0000      -2.475688       -67.3669 
  18   1.0000      -2.475063       -67.3499 
  19   1.0000      -2.474406       -67.3320 
  20   1.0000      -1.572652       -42.7940 
  21   1.0000      -1.554675       -42.3049 
  22   1.0000      -1.545408       -42.0527 
  23   1.0000      -0.703248       -19.1363 
  24   1.0000      -0.312258        -8.4970 
  25   1.0000      -0.294437        -8.0120 
  26   1.0000      -0.294380        -8.0105 
  27   1.0000      -0.167382        -4.5547 
  28   1.0000      -0.141262        -3.8439 
  29   1.0000      -0.138640        -3.7726 
  30   1.0000      -0.137914        -3.7528 
  31   0.0000      -0.114123        -3.1054 
  32   0.0000      -0.088917        -2.4195 
  33   0.0000      -0.031959        -0.8696 
  34   0.0000      -0.028957        -0.7879 
  35   0.0000      -0.001367        -0.0372 
  36   0.0000       0.002905         0.0790 
  37   0.0000       0.019303         0.5253 
  38   0.0000       0.021124         0.5748 
  39   0.0000       0.033767         0.9188 
  40   0.0000       0.033813         0.9201 
  41   0.0000       0.036291         0.9875 
  42   0.0000       0.037476         1.0198 
  43   0.0000       0.038907         1.0587 
  44   0.0000       0.053592         1.4583 
  45   0.0000       0.085702         2.3321 
  46   0.0000       0.094862         2.5813 
  47   0.0000       0.096228         2.6185 
  48   0.0000       0.098805         2.6886 
  49   0.0000       0.131331         3.5737 
  50   0.0000       0.133053         3.6206 
  51   0.0000       0.153041         4.1644 
  52   0.0000       0.153421         4.1748 
  53   0.0000       0.164320         4.4714 
  54   0.0000       0.169134         4.6024 
  55   0.0000       0.174866         4.7583 
  56   0.0000       0.185543         5.0489 
  57   0.0000       0.198885         5.4119 
  58   0.0000       0.200163         5.4467 
  59   0.0000       0.264153         7.1880 
  60   0.0000       0.280929         7.6445 
  61   0.0000       0.282277         7.6811 
  62   0.0000       0.342629         9.3234 
  63   0.0000       0.364697         9.9239 
  64   0.0000       0.364903         9.9295 
  65   0.0000       0.406645        11.0654 
  66   0.0000       0.432592        11.7714 
  67   0.0000       0.435810        11.8590 
  68   0.0000       0.461582        12.5603 
  69   0.0000       0.463235        12.6053 
  70   0.0000       0.485880        13.2215 
  71   0.0000       0.506239        13.7755 
  72   0.0000       0.523043        14.2327 
  73   0.0000       0.546886        14.8815 
  74   0.0000       0.547402        14.8956 
  75   0.0000       0.580844        15.8056 
  76   0.0000       0.581790        15.8313 
  77   0.0000       0.608430        16.5562 
  78   0.0000       0.633853        17.2480 
  79   0.0000       0.644873        17.5479 
  80   0.0000       0.645415        17.5626 
  81   0.0000       0.668874        18.2010 
  82   0.0000       0.671040        18.2599 
  83   0.0000       0.779345        21.2071 
  84   0.0000       0.779423        21.2092 
  85   0.0000       0.828514        22.5450 
  86   0.0000       0.841095        22.8874 
  87   0.0000       0.845790        23.0151 
  88   0.0000       0.901115        24.5206 
  89   0.0000       0.929991        25.3064 
  90   0.0000       0.930711        25.3259 
  91   0.0000       1.146158        31.1885 
  92   0.0000       1.152487        31.3608 
  93   0.0000       1.160921        31.5903 
  94   0.0000       1.324455        36.0403 
  95   0.0000       1.324881        36.0518 
  96   0.0000       1.366473        37.1836 
  97   0.0000       1.370866        37.3032 
  98   0.0000       1.501376        40.8545 
  99   0.0000       1.535462        41.7821 
 100   0.0000       1.547358        42.1057 
 101   0.0000       1.586998        43.1844 
 102   0.0000       1.589354        43.2485 
 103   0.0000       1.622855        44.1601 
 104   0.0000       1.624874        44.2151 
 105   0.0000       1.762644        47.9640 
 106   0.0000       1.766339        48.0645 
 107   0.0000       1.767768        48.1034 
 108   0.0000       1.798008        48.9263 
 109   0.0000       1.802361        49.0447 
 110   0.0000       1.904870        51.8342 
 111   0.0000       1.906152        51.8690 
 112   0.0000       1.922789        52.3218 
 113   0.0000       1.955053        53.1997 
 114   0.0000       1.960187        53.3394 
 115   0.0000       1.996869        54.3376 
 116   0.0000       2.002826        54.4997 
 117   0.0000       2.002899        54.5016 
 118   0.0000       2.110969        57.4424 
 119   0.0000       2.111250        57.4500 
 120   0.0000       2.131784        58.0088 
 121   0.0000       2.132854        58.0379 
 122   0.0000       2.158615        58.7389 
 123   0.0000       2.199156        59.8421 
 124   0.0000       2.204445        59.9860 
 125   0.0000       2.432909        66.2028 
 126   0.0000       2.495906        67.9171 
 127   0.0000       2.497019        67.9473 
 128   0.0000       2.671635        72.6989 
 129   0.0000       2.738596        74.5210 
 130   0.0000       2.739970        74.5584 
 131   0.0000       2.972920        80.8973 
 132   0.0000       2.983264        81.1787 
 133   0.0000       3.360349        91.4397 
 134   0.0000       3.609111        98.2089 
 135   0.0000       4.790257       130.3495 
 136   0.0000       4.790263       130.3497 
 137   0.0000       4.792058       130.3985 
 138   0.0000       4.805881       130.7747 
 139   0.0000       4.812855       130.9644 
 140   0.0000       4.985025       135.6494 
 141   0.0000       4.988251       135.7372 
 142   0.0000       5.136929       139.7829 
 143   0.0000       5.138164       139.8165 
 144   0.0000       5.146131       140.0334 
 145   0.0000       5.146534       140.0443 
 146   0.0000       5.220781       142.0647 
 147   0.0000       5.231622       142.3597 
 148   0.0000       5.299786       144.2145 
 149   0.0000       5.327500       144.9686 
 150   0.0000       5.329423       145.0210 
 151   0.0000       5.661474       154.0565 

                 SPIN DOWN ORBITALS
  NO   OCC          E(Eh)            E(eV) 
   0   1.0000    -481.724645    -13108.3940 
   1   1.0000    -196.065129     -5335.2034 
   2   1.0000     -61.940227     -1685.4793 
   3   1.0000     -55.773135     -1517.6642 
   4   1.0000     -55.772811     -1517.6553 
   5   1.0000     -55.772504     -1517.6470 
   6   1.0000     -21.805219      -593.3502 
   7   1.0000     -18.337761      -498.9959 
   8   1.0000     -18.328461      -498.7428 
   9   1.0000     -18.317223      -498.4370 
  10   1.0000      -8.469500      -230.4668 
  11   1.0000      -6.307498      -171.6357 
  12   1.0000      -6.306418      -171.6064 
  13   1.0000      -6.305042      -171.5689 
  14   1.0000      -2.478128       -67.4333 
  15   1.0000      -2.476955       -67.4014 
  16   1.0000      -2.475872       -67.3719 
  17   1.0000      -2.475149       -67.3522 
  18   1.0000      -2.474989       -67.3479 
  19   1.0000      -2.391643       -65.0799 
  20   1.0000      -1.486019       -40.4366 
  21   1.0000      -1.447685       -39.3935 
  22   1.0000      -1.418675       -38.6041 
  23   1.0000      -0.702320       -19.1111 
  24   1.0000      -0.300044        -8.1646 
  25   1.0000      -0.289549        -7.8790 
  26   1.0000      -0.281863        -7.6699 
  27   0.0000      -0.090835        -2.4717 
  28   0.0000      -0.064673        -1.7598 
  29   0.0000      -0.045346        -1.2339 
  30   0.0000      -0.037746        -1.0271 
  31   0.0000      -0.029868        -0.8127 
  32   0.0000      -0.029371        -0.7992 
  33   0.0000       0.004523         0.1231 
  34   0.0000       0.007867         0.2141 
  35   0.0000       0.008599         0.2340 
  36   0.0000       0.020176         0.5490 
  37   0.0000       0.035617         0.9692 
  38   0.0000       0.036464         0.9922 
  39   0.0000       0.051557         1.4029 
  40   0.0000       0.054792         1.4910 
  41   0.0000       0.056149         1.5279 
  42   0.0000       0.057432         1.5628 
  43   0.0000       0.057616         1.5678 
  44   0.0000       0.065213         1.7745 
  45   0.0000       0.103354         2.8124 
  46   0.0000       0.103590         2.8188 
  47   0.0000       0.105502         2.8708 
  48   0.0000       0.122184         3.3248 
  49   0.0000       0.164117         4.4659 
  50   0.0000       0.165470         4.5027 
  51   0.0000       0.172506         4.6941 
  52   0.0000       0.172665         4.6985 
  53   0.0000       0.182755         4.9730 
  54   0.0000       0.198480         5.4009 
  55   0.0000       0.201254         5.4764 
  56   0.0000       0.205493         5.5918 
  57   0.0000       0.223613         6.0848 
  58   0.0000       0.223715         6.0876 
  59   0.0000       0.278595         7.5809 
  60   0.0000       0.291885         7.9426 
  61   0.0000       0.295930         8.0527 
  62   0.0000       0.366010         9.9596 
  63   0.0000       0.398881        10.8541 
  64   0.0000       0.399001        10.8574 
  65   0.0000       0.445049        12.1104 
  66   0.0000       0.458349        12.4723 
  67   0.0000       0.458686        12.4815 
  68   0.0000       0.469523        12.7764 
  69   0.0000       0.472138        12.8475 
  70   0.0000       0.522588        14.2204 
  71   0.0000       0.524779        14.2800 
  72   0.0000       0.544128        14.8065 
  73   0.0000       0.576273        15.6812 
  74   0.0000       0.583328        15.8732 
  75   0.0000       0.586230        15.9521 
  76   0.0000       0.586745        15.9662 
  77   0.0000       0.624473        16.9928 
  78   0.0000       0.643213        17.5027 
  79   0.0000       0.676464        18.4075 
  80   0.0000       0.683174        18.5901 
  81   0.0000       0.728345        19.8193 
  82   0.0000       0.728573        19.8255 
  83   0.0000       0.782336        21.2884 
  84   0.0000       0.782355        21.2890 
  85   0.0000       0.846596        23.0370 
  86   0.0000       0.868322        23.6282 
  87   0.0000       0.876556        23.8523 
  88   0.0000       0.931494        25.3472 
  89   0.0000       0.945926        25.7399 
  90   0.0000       0.945941        25.7404 
  91   0.0000       1.176665        32.0187 
  92   0.0000       1.183093        32.1936 
  93   0.0000       1.187335        32.3090 
  94   0.0000       1.412252        38.4293 
  95   0.0000       1.412325        38.4313 
  96   0.0000       1.433547        39.0088 
  97   0.0000       1.433702        39.0130 
  98   0.0000       1.536122        41.8000 
  99   0.0000       1.570616        42.7386 
 100   0.0000       1.581294        43.0292 
 101   0.0000       1.647867        44.8407 
 102   0.0000       1.648389        44.8550 
 103   0.0000       1.675161        45.5834 
 104   0.0000       1.675163        45.5835 
 105   0.0000       1.781196        48.4688 
 106   0.0000       1.783732        48.5378 
 107   0.0000       1.788425        48.6655 
 108   0.0000       1.827314        49.7237 
 109   0.0000       1.827710        49.7345 
 110   0.0000       1.911534        52.0155 
 111   0.0000       1.918285        52.1992 
 112   0.0000       1.937010        52.7087 
 113   0.0000       1.955010        53.1985 
 114   0.0000       1.960385        53.3448 
 115   0.0000       2.002928        54.5024 
 116   0.0000       2.002934        54.5026 
 117   0.0000       2.013087        54.7789 
 118   0.0000       2.118485        57.6469 
 119   0.0000       2.120162        57.6926 
 120   0.0000       2.149679        58.4957 
 121   0.0000       2.154852        58.6365 
 122   0.0000       2.222635        60.4810 
 123   0.0000       2.259004        61.4706 
 124   0.0000       2.273999        61.8787 
 125   0.0000       2.472441        67.2785 
 126   0.0000       2.522011        68.6274 
 127   0.0000       2.531086        68.8744 
 128   0.0000       2.725681        74.1695 
 129   0.0000       2.839271        77.2605 
 130   0.0000       2.840862        77.3038 
 131   0.0000       3.042503        82.7907 
 132   0.0000       3.068119        83.4878 
 133   0.0000       3.423853        93.1678 
 134   0.0000       3.643570        99.1466 
 135   0.0000       4.808554       130.8474 
 136   0.0000       4.920644       133.8975 
 137   0.0000       4.922216       133.9403 
 138   0.0000       4.922278       133.9420 
 139   0.0000       4.923671       133.9799 
 140   0.0000       5.070823       137.9841 
 141   0.0000       5.102883       138.8565 
 142   0.0000       5.225592       142.1956 
 143   0.0000       5.225849       142.2026 
 144   0.0000       5.229569       142.3038 
 145   0.0000       5.230751       142.3360 
 146   0.0000       5.293779       144.0511 
 147   0.0000       5.297094       144.1412 
 148   0.0000       5.368825       146.0932 
 149   0.0000       5.389848       146.6652 
 150   0.0000       5.416626       147.3939 
 151   0.0000       5.747484       156.3970 

                    ********************************
                    * MULLIKEN POPULATION ANALYSIS *
                    ********************************

--------------------------------------------
MULLIKEN ATOMIC CHARGES AND SPIN POPULATIONS
--------------------------------------------
   0 V :   -0.124466    3.994967
   1 Br:    0.124466    0.005033
Sum of atomic charges         :   -0.0000000
Sum of atomic spin populations:    4.0000000

-----------------------------------------------------
MULLIKEN REDUCED ORBITAL CHARGES AND SPIN POPULATIONS
-----------------------------------------------------
CHARGE
  0 V s       :     6.808217  s :     6.808217
      pz      :     4.144695  p :    12.302386
      px      :     4.098953
      py      :     4.058738
      dz2     :     0.750613  d :     3.964642
      dxz     :     1.036884
      dyz     :     0.240789
      dx2y2   :     0.942993
      dxy     :     0.993362
      f0      :     0.006988  f :     0.042764
      f+1     :     0.017313
      f-1     :     0.018296
      f+2     :     0.000174
      f-2     :    -0.000038
      f+3     :     0.000020
      f-3     :     0.000012
      g0      :     0.001247  g :     0.006457
      g+1     :     0.002511
      g-1     :     0.002550
      g+2     :     0.000089
      g-2     :     0.000043
      g+3     :     0.000005
      g-3     :     0.000001
      g+4     :     0.000005
      g-4     :     0.000005
  1 Brs       :     7.931477  s :     7.931477
      pz      :     5.404704  p :    16.912612
      px      :     5.830808
      py      :     5.677100
      dz2     :     2.000387  d :    10.028219
      dxz     :     2.013847
      dyz     :     2.003150
      dx2y2   :     2.005443
      dxy     :     2.005393
      f0      :     0.001726  f :     0.003226
      f+1     :    -0.000347
      f-1     :    -0.000641
      f+2     :     0.001241
      f-2     :     0.001236
      f+3     :     0.000006
      f-3     :     0.000005

SPIN
  0 V s       :     0.534713  s :     0.534713
      pz      :     0.026517  p :     0.095465
      px      :     0.055630
      py      :     0.013318
      dz2     :     0.491239  d :     3.365087
      dxz     :     0.881393
      dyz     :     0.056222
      dx2y2   :     0.942875
      dxy     :     0.993359
      f0      :    -0.000578  f :     0.000680
      f+1     :     0.000880
      f-1     :     0.000326
      f+2     :     0.000100
      f-2     :    -0.000051
      f+3     :     0.000006
      f-3     :    -0.000003
      g0      :    -0.000046  g :    -0.000978
      g+1     :    -0.000447
      g-1     :    -0.000597
      g+2     :     0.000068
      g-2     :     0.000031
      g+3     :     0.000004
      g-3     :    -0.000001
      g+4     :     0.000005
      g-4     :     0.000005
  1 Brs       :     0.022877  s :     0.022877
      pz      :    -0.029164  p :    -0.047936
      px      :     0.051190
      py      :    -0.069962
      dz2     :     0.003302  d :     0.025803
      dxz     :     0.011056
      dyz     :     0.000581
      dx2y2   :     0.005443
      dxy     :     0.005421
      f0      :     0.001418  f :     0.004289
      f+1     :     0.000293
      f-1     :     0.000121
      f+2     :     0.001231
      f-2     :     0.001235
      f+3     :    -0.000005
      f-3     :    -0.000005


                     *******************************
                     * LOEWDIN POPULATION ANALYSIS *
                     *******************************

-------------------------------------------
LOEWDIN ATOMIC CHARGES AND SPIN POPULATIONS
-------------------------------------------
   0 V :   -0.349612    3.785688
   1 Br:    0.349612    0.214312

----------------------------------------------------
LOEWDIN REDUCED ORBITAL CHARGES AND SPIN POPULATIONS
----------------------------------------------------
CHARGE
  0 V s       :     6.389237  s :     6.389237
      pz      :     4.218682  p :    12.347085
      px      :     4.113257
      py      :     4.015146
      dz2     :     0.916504  d :     4.190858
      dxz     :     1.056152
      dyz     :     0.328001
      dx2y2   :     0.920580
      dxy     :     0.969621
      f0      :     0.120879  f :     0.355679
      f+1     :     0.125573
      f-1     :     0.107605
      f+2     :     0.000943
      f-2     :     0.000648
      f+3     :     0.000020
      f-3     :     0.000012
      g0      :     0.020653  g :     0.066753
      g+1     :     0.024031
      g-1     :     0.021690
      g+2     :     0.000186
      g-2     :     0.000176
      g+3     :     0.000005
      g-3     :     0.000001
      g+4     :     0.000005
      g-4     :     0.000005
  1 Brs       :     7.446594  s :     7.446594
      pz      :     5.645970  p :    16.643044
      px      :     5.540803
      py      :     5.456271
      dz2     :     2.185799  d :    10.341532
      dxz     :     2.086716
      dyz     :     2.037376
      dx2y2   :     2.015507
      dxy     :     2.016135
      f0      :     0.105738  f :     0.219218
      f+1     :     0.053437
      f-1     :     0.033893
      f+2     :     0.012724
      f-2     :     0.013415
      f+3     :     0.000006
      f-3     :     0.000005

SPIN
  0 V s       :     0.467778  s :     0.467778
      pz      :     0.024281  p :     0.129515
      px      :     0.100534
      py      :     0.004701
      dz2     :     0.465302  d :     3.186961
      dxz     :     0.790616
      dyz     :     0.040975
      dx2y2   :     0.920455
      dxy     :     0.969612
      f0      :    -0.001181  f :     0.002960
      f+1     :     0.009287
      f-1     :    -0.006506
      f+2     :     0.000796
      f-2     :     0.000561
      f+3     :     0.000006
      f-3     :    -0.000003
      g0      :    -0.000268  g :    -0.001526
      g+1     :     0.000245
      g-1     :    -0.001662
      g+2     :     0.000073
      g-2     :     0.000073
      g+3     :     0.000004
      g-3     :    -0.000001
      g+4     :     0.000005
      g-4     :     0.000005
  1 Brs       :     0.039554  s :     0.039554
      pz      :     0.040807  p :     0.027567
      px      :     0.027092
      py      :    -0.040332
      dz2     :     0.009880  d :     0.095287
      dxz     :     0.051471
      dyz     :     0.001922
      dx2y2   :     0.015681
      dxy     :     0.016334
      f0      :     0.004124  f :     0.051903
      f+1     :     0.020751
      f-1     :     0.000911
      f+2     :     0.012712
      f-2     :     0.013415
      f+3     :    -0.000005
      f-3     :    -0.000005


                      *****************************
                      * MAYER POPULATION ANALYSIS *
                      *****************************

  NA   - Mulliken gross atomic population
  ZA   - Total nuclear charge
  QA   - Mulliken gross atomic charge
  VA   - Mayer's total valence
  BVA  - Mayer's bonded valence
  FA   - Mayer's free valence

  ATOM       NA         ZA         QA         VA         BVA        FA
  0 V     23.1245    23.0000    -0.1245     5.5750     1.9061     3.6688
  1 Br    34.8755    35.0000     0.1245     1.9273     1.9061     0.0212

  Mayer bond orders larger than 0.100000
B(  0-V ,  1-Br) :   1.9061 

-------
TIMINGS
-------

Total SCF time: 0 days 0 hours 0 min 5 sec 

Total time                  ....       5.645 sec
Sum of individual times     ....       5.463 sec  ( 96.8%)

Fock matrix formation       ....       4.941 sec  ( 87.5%)
  Split-RI-J                ....       3.728 sec  ( 75.4% of F)
  XC integration            ....       1.000 sec  ( 20.2% of F)
    Basis function eval.    ....       0.086 sec  (  8.6% of XC)
    Density eval.           ....       0.090 sec  (  9.0% of XC)
    XC-Functional eval.     ....       0.017 sec  (  1.7% of XC)
    XC-Potential eval.      ....       0.251 sec  ( 25.1% of XC)
Diagonalization             ....       0.131 sec  (  2.3%)
Density matrix formation    ....       0.017 sec  (  0.3%)
Population analysis         ....       0.007 sec  (  0.1%)
Initial guess               ....       0.132 sec  (  2.3%)
Orbital Transformation      ....       0.000 sec  (  0.0%)
Orbital Orthonormalization  ....       0.000 sec  (  0.0%)
DIIS solution               ....       0.048 sec  (  0.9%)
Grid generation             ....       0.185 sec  (  3.3%)


-------------------------------------------------------------------------------
                          DFT DISPERSION CORRECTION                            
                                                                               
                              DFTD3 V3.1  Rev 1                                
                          USING Becke-Johnson damping                          
-------------------------------------------------------------------------------
The TPSS functional is recognized
Active option DFTDOPT                   ...         4   

molecular C6(AA) [au] = 1209.071657 


            DFT-D V3
 parameters
 s6 scaling factor         :     1.0000 
 a1 scaling factor         :     0.4535 
 s8 scaling factor         :     1.9435 
 a2 scaling factor         :     4.4752 
 ad hoc parameters k1-k3   :    16.0000     1.3333    -4.0000 

 Edisp/kcal,au: -1.302265565528  -0.002075292056 
 E6   /kcal   :  -0.407003272 
 E8   /kcal   :  -0.895262294 
 % E8         :  68.746522769 

-------------------------   ----------------
Dispersion correction           -0.002075292
-------------------------   ----------------


-------------------------   --------------------
FINAL SINGLE POINT ENERGY     -3518.124732008539
-------------------------   --------------------



           ************************************************************
           *        Program running with 24 parallel MPI-processes    *
           *              working on a common directory               *
           ************************************************************
------------------------------------------------------------------------------
                         ORCA SCF GRADIENT CALCULATION
------------------------------------------------------------------------------

Gradient of the Kohn-Sham DFT energy:
Kohn-Sham wavefunction type      ... UKS
Hartree-Fock exchange scaling    ...    0.000
Number of operators              ...    2
Number of atoms                  ...    2
Basis set dimensions             ...  152
Integral neglect threshold       ... 2.5e-11
Integral primitive cutoff        ... 2.5e-12

Nuclear repulsion gradient       ... done
One Electron Gradient            ... done
Pre-screening matrix             ... done
RI-J gradient                    ... done
Exchange-correlation gradient    ... done
Dispersion correction            ... done

------------------
CARTESIAN GRADIENT
------------------

   1   V   :    0.000000003   -0.000000004    0.160756928
   2   Br  :    0.000000001    0.000000009   -0.159505867

Difference to translation invariance:
           :    0.0000000044    0.0000000058    0.0012510616

Norm of the cartesian gradient     ...    0.2264617220
RMS gradient                       ...    0.0924526108
MAX gradient                       ...    0.1607569283

-------
TIMINGS
-------

Total SCF gradient time            ...        4.705 sec

One electron gradient       ....       0.058 sec  (  1.2%)
Prescreening matrices       ....       3.680 sec  ( 78.2%)
RI-J Coulomb gradient       ....       0.317 sec  (  6.7%)
XC gradient                 ....       0.109 sec  (  2.3%)
------------------------------------------------------------------------------
                         ORCA GEOMETRY RELAXATION STEP
------------------------------------------------------------------------------

Reading the OPT-File                    .... done
Getting information on internals        .... done
Copying old internal coords+grads       .... done
Making the new internal coordinates     .... (new redundants).... done
Validating the new internal coordinates .... (new redundants).... done
Calculating the B-matrix                .... done
Calculating the G,G- and P matrices     .... done
Transforming gradient to internals      .... done
Projecting the internal gradient        .... done
Number of atoms                         ....   2
Number of internal coordinates          ....   1
Current Energy                          .... -3518.124732009 Eh
Current gradient norm                   ....     0.226461722 Eh/bohr
Maximum allowed component of the step   ....  0.300
Current trust radius                    ....  0.300
Evaluating the initial hessian          ....  (Almloef) done
Projecting the Hessian                  .... done
Forming the augmented Hessian           .... done
Diagonalizing the augmented Hessian     .... done
Last element of RFO vector              ....  0.997524301
Lowest eigenvalues of augmented Hessian:
 -0.011288806
Length of the computed step             ....  0.070497143
The final length of the internal step   ....  0.070497143
Converting the step to cartesian space:
 Initial RMS(Int)=    0.0704971428
Transforming coordinates:
 Iter   0:  RMS(Cart)=    0.0203507722 RMS(Int)=    0.0704971428
 Iter   1:  RMS(Cart)=    0.0000000000 RMS(Int)=    0.0000000000
done
Storing new coordinates                 .... done

                                .--------------------.
          ----------------------|Geometry convergence|-------------------------
          Item                value                   Tolerance       Converged
          ---------------------------------------------------------------------
          RMS gradient        0.1601313975            0.0001000000      NO
          MAX gradient        0.1601313975            0.0003000000      NO
          RMS step            0.0704971428            0.0020000000      NO
          MAX step            0.0704971428            0.0040000000      NO
          ........................................................
          Max(Bonds)      0.0373      Max(Angles)    0.00
          Max(Dihed)        0.00      Max(Improp)    0.00
          ---------------------------------------------------------------------

The optimization has not yet converged - more geometry cycles are needed


    ---------------------------------------------------------------------------
                         Redundant Internal Coordinates
                            (Angstroem and degrees)

        Definition                    Value    dE/dq     Step     New-Value
    ----------------------------------------------------------------------------
     1. B(Br  1,V   0)                2.0000 -0.160131  0.0373    2.0373   
    ----------------------------------------------------------------------------

         *************************************************************
         *                GEOMETRY OPTIMIZATION CYCLE   2            *
         *************************************************************
---------------------------------
CARTESIAN COORDINATES (ANGSTROEM)
---------------------------------
  V      0.000000    0.000000   -0.018653
  Br     0.000000    0.000000    2.018653

----------------------------
CARTESIAN COORDINATES (A.U.)
----------------------------
  NO LB      ZA    FRAG     MASS         X           Y           Z
   0 V    23.0000    0    50.940    0.000000    0.000000   -0.035249
   1 Br   35.0000    0    79.900    0.000000    0.000000    3.814701

--------------------------------
INTERNAL COORDINATES (ANGSTROEM)
--------------------------------
 V      0   0   0     0.000000000000     0.00000000     0.00000000
 Br     1   0   0     2.037305481203     0.00000000     0.00000000

---------------------------
INTERNAL COORDINATES (A.U.)
---------------------------
 V      0   0   0     0.000000000000     0.00000000     0.00000000
 Br     1   0   0     3.849949410610     0.00000000     0.00000000



           ************************************************************
           *        Program running with 24 parallel MPI-processes    *
           *              working on a common directory               *
           ************************************************************
 One Electron integrals                  ... done
 Pre-screening matrix                    ... done


           ************************************************************
           *        Program running with 24 parallel MPI-processes    *
           *              working on a common directory               *
           ************************************************************

Diagonalization of the overlap matrix:
Smallest eigenvalue                        ... 5.107e-05
Time for diagonalization                   ...    0.005 sec
Threshold for overlap eigenvalues          ... 1.000e-08
Number of eigenvalues below threshold      ... 0
Time for construction of square roots      ...    0.003 sec
Total time needed                          ...    0.008 sec

-------------------
DFT GRID GENERATION
-------------------

General Integration Accuracy     IntAcc      ...  4.340
Radial Grid Type                 RadialGrid  ... Gauss-Chebyshev
Angular Grid (max. acc.)         AngularGrid ... Lebedev-110
Angular grid pruning method      GridPruning ... 3 (G Style)
Weight generation scheme         WeightScheme... Becke
Basis function cutoff            BFCut       ...    1.0000e-11
Integration weight cutoff        WCut        ...    1.0000e-14
Grids for H and He will be reduced by one unit

# of grid points (after initial pruning)     ...   5862 (   0.0 sec)
# of grid points (after weights+screening)   ...   5836 (   0.0 sec)
nearest neighbour list constructed           ...    0.0 sec
Grid point re-assignment to atoms done       ...    0.0 sec
Grid point division into batches done        ...    0.0 sec
Reduced shell lists constructed in    0.0 sec

Total number of grid points                  ...     5836
Total number of batches                      ...       92
Average number of points per batch           ...       63
Average number of grid points per atom       ...     2918
Average number of shells per batch           ...    26.40 (60.00%)
Average number of basis functions per batch  ...    87.20 (57.37%)
Average number of large shells per batch     ...    19.20 (72.73%)
Average number of large basis fcns per batch ...    60.80 (69.72%)
Maximum spatial batch extension              ...  18.98, 28.73, 16.15 au
Average spatial batch extension              ...   0.76,  1.04,  0.70 au

Time for grid setup =    0.027 sec

--------------
SCF ITERATIONS
--------------
ITER       Energy         Delta-E        Max-DP      RMS-DP      [F,P]     Damp
               ***  Starting incremental Fock matrix formation  ***
  0  -3518.1302870813   0.000000000000 0.00300353  0.00006764  0.0208010 0.7000
  1  -3518.1303875740  -0.000100492764 0.00193812  0.00005482  0.0145556 0.7000
                               ***Turning on DIIS***
  2  -3518.1304555469  -0.000067972870 0.00509855  0.00012726  0.0101844 0.0000
  3  -3518.1306074433  -0.000151896437 0.00492216  0.00008714  0.0015816 0.0000
  4  -3518.1306125554  -0.000005112022 0.00087065  0.00001793  0.0010376 0.0000
  5  -3518.1306166567  -0.000004101292 0.00183124  0.00003479  0.0005303 0.0000
  6  -3518.1306182623  -0.000001605638 0.00043855  0.00000631  0.0001680 0.0000
  7  -3518.1306184563  -0.000000194009 0.00024298  0.00000348  0.0000897 0.0000
  8  -3518.1306185098  -0.000000053534 0.00011190  0.00000143  0.0000916 0.0000
  9  -3518.1306185274  -0.000000017535 0.00003598  0.00000061  0.0000204 0.0000
 10  -3518.1306186272  -0.000000099860 0.00000486  0.00000010  0.0000051 0.0000
 11  -3518.1306185792   0.000000048048 0.00000258  0.00000005  0.0000020 0.0000
                            ***DIIS convergence achieved***

               *****************************************************
               *                     SUCCESS                       *
               *           SCF CONVERGED AFTER  12 CYCLES          *
               *****************************************************

Setting up the final grid:

General Integration Accuracy     IntAcc      ...  4.670
Radial Grid Type                 RadialGrid  ... Gauss-Chebyshev
Angular Grid (max. acc.)         AngularGrid ... Lebedev-302
Angular grid pruning method      GridPruning ... 3 (G Style)
Weight generation scheme         WeightScheme... Becke
Basis function cutoff            BFCut       ...    1.0000e-11
Integration weight cutoff        WCut        ...    1.0000e-14
Grids for H and He will be reduced by one unit

# of grid points (after initial pruning)     ...  19280 (   0.0 sec)
# of grid points (after weights+screening)   ...  19251 (   0.0 sec)
nearest neighbour list constructed           ...    0.0 sec
Grid point re-assignment to atoms done       ...    0.0 sec
Grid point division into batches done        ...    0.1 sec
Reduced shell lists constructed in    0.1 sec

Total number of grid points                  ...    19251
Total number of batches                      ...      301
Average number of points per batch           ...       63
Average number of grid points per atom       ...     9626
Average number of shells per batch           ...    21.14 (48.05%)
Average number of basis functions per batch  ...    57.71 (37.97%)
Average number of large shells per batch     ...    13.79 (65.20%)
Average number of large basis fcns per batch ...    35.36 (61.26%)
Maximum spatial batch extension              ...  24.49, 24.19, 17.58 au
Average spatial batch extension              ...   0.85,  0.84,  0.67 au

Final grid set up in    0.2 sec
Final integration                            ... done (   0.1 sec)
Change in XC energy                          ...    -0.002262458
Integrated number of electrons               ...    58.000004959
Previous integrated no of electrons          ...    57.999758360
Total Energy       :        -3518.13288107 Eh          -95733.26268 eV
  Last Energy change         ...   -3.6067e-08  Tolerance :   1.0000e-08
  Last MAX-Density change    ...    1.0274e-06  Tolerance :   1.0000e-07
             **** THE GBW FILE WAS UPDATED (16_VBr.gbw) ****
             **** DENSITY FILE WAS UPDATED (16_VBr.scfp) ****
             **** ENERGY FILE WAS UPDATED (16_VBr.en.tmp) ****
----------------------
UHF SPIN CONTAMINATION
----------------------

Warning: in a DFT calculation there is little theoretical justification to 
         calculate <S**2> as in Hartree-Fock theory. We will do it anyways
         but you should keep in mind that the values have only limited relevance

Expectation value of <S**2>     :     6.015277
Ideal value S*(S+1) for S=2.0   :     6.000000
Deviation                       :     0.015277

             **** THE GBW FILE WAS UPDATED (16_VBr.gbw) ****
             **** DENSITY FILE WAS UPDATED (16_VBr.scfp) ****
Total SCF time: 0 days 0 hours 0 min 3 sec 


-------------------------------------------------------------------------------
                          DFT DISPERSION CORRECTION                            
                                                                               
                              DFTD3 V3.1  Rev 1                                
                          USING Becke-Johnson damping                          
-------------------------------------------------------------------------------
-------------------------   ----------------
Dispersion correction           -0.002074736
-------------------------   ----------------


-------------------------   --------------------
FINAL SINGLE POINT ENERGY     -3518.134955809921
-------------------------   --------------------



           ************************************************************
           *        Program running with 24 parallel MPI-processes    *
           *              working on a common directory               *
           ************************************************************
------------------------------------------------------------------------------
                         ORCA SCF GRADIENT CALCULATION
------------------------------------------------------------------------------

Gradient of the Kohn-Sham DFT energy:
Kohn-Sham wavefunction type      ... UKS
Hartree-Fock exchange scaling    ...    0.000
Number of operators              ...    2
Number of atoms                  ...    2
Basis set dimensions             ...  152
Integral neglect threshold       ... 2.5e-11
Integral primitive cutoff        ... 2.5e-12

Nuclear repulsion gradient       ... done
One Electron Gradient            ... done
Pre-screening matrix             ... done
RI-J gradient                    ... done
Exchange-correlation gradient    ... done
Dispersion correction            ... done

------------------
CARTESIAN GRADIENT
------------------

   1   V   :    0.000000004   -0.000000023    0.132355521
   2   Br  :   -0.000000008    0.000000021   -0.131356245

Difference to translation invariance:
           :   -0.0000000041   -0.0000000017    0.0009992765

Norm of the cartesian gradient     ...    0.1864737165
RMS gradient                       ...    0.0761275760
MAX gradient                       ...    0.1323555211

-------
TIMINGS
-------

Total SCF gradient time            ...        4.716 sec

One electron gradient       ....       0.061 sec  (  1.3%)
Prescreening matrices       ....       3.678 sec  ( 78.0%)
RI-J Coulomb gradient       ....       0.318 sec  (  6.7%)
XC gradient                 ....       0.096 sec  (  2.0%)
------------------------------------------------------------------------------
                         ORCA GEOMETRY RELAXATION STEP
------------------------------------------------------------------------------

Reading the OPT-File                    .... done
Getting information on internals        .... done
Copying old internal coords+grads       .... done
Making the new internal coordinates     .... (new redundants).... done
Validating the new internal coordinates .... (new redundants).... done
Calculating the B-matrix                .... done
Calculating the G,G- and P matrices     .... done
Transforming gradient to internals      .... done
Projecting the internal gradient        .... done
Number of atoms                         ....   2
Number of internal coordinates          ....   1
Current Energy                          .... -3518.134955810 Eh
Current gradient norm                   ....     0.186473717 Eh/bohr
Maximum allowed component of the step   ....  0.300
Current trust radius                    ....  0.300
Updating the Hessian (BFGS)             .... done
Forming the augmented Hessian           .... done
Diagonalizing the augmented Hessian     .... done
Last element of RFO vector              ....  0.958011364
Lowest eigenvalues of augmented Hessian:
 -0.039464112
Length of the computed step             ....  0.299297320
The final length of the internal step   ....  0.299297320
Converting the step to cartesian space:
 Initial RMS(Int)=    0.2992973204
Transforming coordinates:
 Iter   0:  RMS(Cart)=    0.0577350269 RMS(Int)=    0.2000000000
 Iter   1:  RMS(Cart)=    0.0286646673 RMS(Int)=    0.0992973204
 Iter   2:  RMS(Cart)=    0.0000000000 RMS(Int)=    0.0000000000
done
Storing new coordinates                 .... done

                                .--------------------.
          ----------------------|Geometry convergence|-------------------------
          Item                value                   Tolerance       Converged
          ---------------------------------------------------------------------
          Energy change      -0.0102238014            0.0000050000      NO
          RMS gradient        0.1318558828            0.0001000000      NO
          MAX gradient        0.1318558828            0.0003000000      NO
          RMS step            0.2992973204            0.0020000000      NO
          MAX step            0.2992973204            0.0040000000      NO
          ........................................................
          Max(Bonds)      0.1584      Max(Angles)    0.00
          Max(Dihed)        0.00      Max(Improp)    0.00
          ---------------------------------------------------------------------

The optimization has not yet converged - more geometry cycles are needed


    ---------------------------------------------------------------------------
                         Redundant Internal Coordinates
                            (Angstroem and degrees)

        Definition                    Value    dE/dq     Step     New-Value
    ----------------------------------------------------------------------------
     1. B(Br  1,V   0)                2.0373 -0.131856  0.1584    2.1957   
    ----------------------------------------------------------------------------

         *************************************************************
         *                GEOMETRY OPTIMIZATION CYCLE   3            *
         *************************************************************
---------------------------------
CARTESIAN COORDINATES (ANGSTROEM)
---------------------------------
  V      0.000000    0.000000   -0.097843
  Br     0.000000    0.000000    2.097843

----------------------------
CARTESIAN COORDINATES (A.U.)
----------------------------
  NO LB      ZA    FRAG     MASS         X           Y           Z
   0 V    23.0000    0    50.940    0.000000    0.000000   -0.184897
   1 Br   35.0000    0    79.900    0.000000    0.000000    3.964349

--------------------------------
INTERNAL COORDINATES (ANGSTROEM)
--------------------------------
 V      0   0   0     0.000000000000     0.00000000     0.00000000
 Br     1   0   0     2.195686801647     0.00000000     0.00000000

---------------------------
INTERNAL COORDINATES (A.U.)
---------------------------
 V      0   0   0     0.000000000000     0.00000000     0.00000000
 Br     1   0   0     4.149246730978     0.00000000     0.00000000



           ************************************************************
           *        Program running with 24 parallel MPI-processes    *
           *              working on a common directory               *
           ************************************************************
 One Electron integrals                  ... done
 Pre-screening matrix                    ... done


           ************************************************************
           *        Program running with 24 parallel MPI-processes    *
           *              working on a common directory               *
           ************************************************************

Diagonalization of the overlap matrix:
Smallest eigenvalue                        ... 5.818e-05
Time for diagonalization                   ...    0.004 sec
Threshold for overlap eigenvalues          ... 1.000e-08
Number of eigenvalues below threshold      ... 0
Time for construction of square roots      ...    0.002 sec
Total time needed                          ...    0.007 sec

-------------------
DFT GRID GENERATION
-------------------

General Integration Accuracy     IntAcc      ...  4.340
Radial Grid Type                 RadialGrid  ... Gauss-Chebyshev
Angular Grid (max. acc.)         AngularGrid ... Lebedev-110
Angular grid pruning method      GridPruning ... 3 (G Style)
Weight generation scheme         WeightScheme... Becke
Basis function cutoff            BFCut       ...    1.0000e-11
Integration weight cutoff        WCut        ...    1.0000e-14
Grids for H and He will be reduced by one unit

# of grid points (after initial pruning)     ...   5862 (   0.0 sec)
# of grid points (after weights+screening)   ...   5837 (   0.0 sec)
nearest neighbour list constructed           ...    0.0 sec
Grid point re-assignment to atoms done       ...    0.0 sec
Grid point division into batches done        ...    0.0 sec
Reduced shell lists constructed in    0.0 sec

Total number of grid points                  ...     5837
Total number of batches                      ...       92
Average number of points per batch           ...       63
Average number of grid points per atom       ...     2918
Average number of shells per batch           ...    25.60 (58.18%)
Average number of basis functions per batch  ...    85.60 (56.32%)
Average number of large shells per batch     ...    18.80 (73.44%)
Average number of large basis fcns per batch ...    58.00 (67.76%)
Maximum spatial batch extension              ...  18.98, 28.73, 16.39 au
Average spatial batch extension              ...   0.76,  1.04,  0.71 au

Time for grid setup =    0.027 sec

--------------
SCF ITERATIONS
--------------
ITER       Energy         Delta-E        Max-DP      RMS-DP      [F,P]     Damp
               ***  Starting incremental Fock matrix formation  ***
  0  -3518.1513362646   0.000000000000 0.00967984  0.00024298  0.0804641 0.7000
  1  -3518.1526863985  -0.001350133889 0.00630292  0.00019687  0.0563250 0.7000
                               ***Turning on DIIS***
  2  -3518.1536184031  -0.000932004604 0.01614709  0.00046682  0.0394167 0.0000
  3  -3518.1556916634  -0.002073260309 0.01675501  0.00029946  0.0061031 0.0000
  4  -3518.1557638271  -0.000072163676 0.00357603  0.00007308  0.0039453 0.0000
  5  -3518.1558235577  -0.000059730569 0.00576346  0.00010552  0.0017520 0.0000
  6  -3518.1558345536  -0.000010995894 0.00757179  0.00006994  0.0005430 0.0000
  7  -3518.1558439831  -0.000009429526 0.00055817  0.00000782  0.0011041 0.0000
  8  -3518.1558463346  -0.000002351496 0.00134028  0.00001133  0.0006777 0.0000
  9  -3518.1558482994  -0.000001964780 0.00096393  0.00001301  0.0002246 0.0000
 10  -3518.1558485499  -0.000000250573 0.00024540  0.00000224  0.0001329 0.0000
 11  -3518.1558487430  -0.000000193102 0.00006232  0.00000110  0.0000242 0.0000
 12  -3518.1558487761  -0.000000033036 0.00003675  0.00000045  0.0000106 0.0000
 13  -3518.1558489407  -0.000000164679 0.00000580  0.00000010  0.0000046 0.0000
                            ***DIIS convergence achieved***

               *****************************************************
               *                     SUCCESS                       *
               *           SCF CONVERGED AFTER  14 CYCLES          *
               *****************************************************

Setting up the final grid:

General Integration Accuracy     IntAcc      ...  4.670
Radial Grid Type                 RadialGrid  ... Gauss-Chebyshev
Angular Grid (max. acc.)         AngularGrid ... Lebedev-302
Angular grid pruning method      GridPruning ... 3 (G Style)
Weight generation scheme         WeightScheme... Becke
Basis function cutoff            BFCut       ...    1.0000e-11
Integration weight cutoff        WCut        ...    1.0000e-14
Grids for H and He will be reduced by one unit

# of grid points (after initial pruning)     ...  19280 (   0.0 sec)
# of grid points (after weights+screening)   ...  19252 (   0.0 sec)
nearest neighbour list constructed           ...    0.0 sec
Grid point re-assignment to atoms done       ...    0.0 sec
Grid point division into batches done        ...    0.1 sec
Reduced shell lists constructed in    0.1 sec

Total number of grid points                  ...    19252
Total number of batches                      ...      302
Average number of points per batch           ...       63
Average number of grid points per atom       ...     9626
Average number of shells per batch           ...    20.86 (47.40%)
Average number of basis functions per batch  ...    57.43 (37.78%)
Average number of large shells per batch     ...    13.79 (66.10%)
Average number of large basis fcns per batch ...    35.36 (61.57%)
Maximum spatial batch extension              ...  24.49, 24.19, 17.74 au
Average spatial batch extension              ...   0.84,  0.83,  0.67 au

Final grid set up in    0.2 sec
Final integration                            ... done (   0.1 sec)
Change in XC energy                          ...    -0.002472313
Integrated number of electrons               ...    58.000006506
Previous integrated no of electrons          ...    57.999644971
Total Energy       :        -3518.15832124 Eh          -95733.95494 eV
  Last Energy change         ...    1.0323e-08  Tolerance :   1.0000e-08
  Last MAX-Density change    ...    5.1647e-06  Tolerance :   1.0000e-07
             **** THE GBW FILE WAS UPDATED (16_VBr.gbw) ****
             **** DENSITY FILE WAS UPDATED (16_VBr.scfp) ****
             **** ENERGY FILE WAS UPDATED (16_VBr.en.tmp) ****
----------------------
UHF SPIN CONTAMINATION
----------------------

Warning: in a DFT calculation there is little theoretical justification to 
         calculate <S**2> as in Hartree-Fock theory. We will do it anyways
         but you should keep in mind that the values have only limited relevance

Expectation value of <S**2>     :     6.016084
Ideal value S*(S+1) for S=2.0   :     6.000000
Deviation                       :     0.016084

             **** THE GBW FILE WAS UPDATED (16_VBr.gbw) ****
             **** DENSITY FILE WAS UPDATED (16_VBr.scfp) ****
Total SCF time: 0 days 0 hours 0 min 3 sec 


-------------------------------------------------------------------------------
                          DFT DISPERSION CORRECTION                            
                                                                               
                              DFTD3 V3.1  Rev 1                                
                          USING Becke-Johnson damping                          
-------------------------------------------------------------------------------
-------------------------   ----------------
Dispersion correction           -0.002073847
-------------------------   ----------------


-------------------------   --------------------
FINAL SINGLE POINT ENERGY     -3518.160395090606
-------------------------   --------------------



           ************************************************************
           *        Program running with 24 parallel MPI-processes    *
           *              working on a common directory               *
           ************************************************************
------------------------------------------------------------------------------
[...]
 131   0.0000       2.881190        78.4012 
 132   0.0000       2.892855        78.7186 
 133   0.0000       2.894687        78.7684 
 134   0.0000       3.442660        93.6795 
 135   0.0000       4.293557       116.8336 
 136   0.0000       4.764921       129.6601 
 137   0.0000       4.765411       129.6734 
 138   0.0000       4.770714       129.8177 
 139   0.0000       4.775681       129.9529 
 140   0.0000       4.839893       131.7002 
 141   0.0000       4.846867       131.8900 
 142   0.0000       5.115275       139.1937 
 143   0.0000       5.115432       139.1980 
 144   0.0000       5.118772       139.2889 
 145   0.0000       5.119404       139.3061 
 146   0.0000       5.142003       139.9210 
 147   0.0000       5.161188       140.4431 
 148   0.0000       5.175923       140.8440 
 149   0.0000       5.271387       143.4417 
 150   0.0000       5.273931       143.5110 
 151   0.0000       5.379150       146.3741 

                 SPIN DOWN ORBITALS
  NO   OCC          E(Eh)            E(eV) 
   0   1.0000    -481.706758    -13107.9073 
   1   1.0000    -196.094361     -5335.9988 
   2   1.0000     -61.919910     -1684.9264 
   3   1.0000     -55.753054     -1517.1177 
   4   1.0000     -55.752708     -1517.1083 
   5   1.0000     -55.752215     -1517.0949 
   6   1.0000     -21.830942      -594.0501 
   7   1.0000     -18.362511      -499.6693 
   8   1.0000     -18.354125      -499.4411 
   9   1.0000     -18.345154      -499.1970 
  10   1.0000      -8.446623      -229.8443 
  11   1.0000      -6.284715      -171.0158 
  12   1.0000      -6.283597      -170.9854 
  13   1.0000      -6.281702      -170.9338 
  14   1.0000      -2.454412       -66.7879 
  15   1.0000      -2.453887       -66.7737 
  16   1.0000      -2.452507       -66.7361 
  17   1.0000      -2.451693       -66.7140 
  18   1.0000      -2.451248       -66.7018 
  19   1.0000      -2.409334       -65.5613 
  20   1.0000      -1.489958       -40.5438 
  21   1.0000      -1.466080       -39.8941 
  22   1.0000      -1.440599       -39.2007 
  23   1.0000      -0.676150       -18.3990 
  24   1.0000      -0.284059        -7.7296 
  25   1.0000      -0.255069        -6.9408 
  26   1.0000      -0.249803        -6.7975 
  27   0.0000      -0.099432        -2.7057 
  28   0.0000      -0.080077        -2.1790 
  29   0.0000      -0.060427        -1.6443 
  30   0.0000      -0.049787        -1.3548 
  31   0.0000      -0.045004        -1.2246 
  32   0.0000      -0.043039        -1.1712 
  33   0.0000      -0.006413        -0.1745 
  34   0.0000      -0.003152        -0.0858 
  35   0.0000       0.007715         0.2099 
  36   0.0000       0.015268         0.4155 
  37   0.0000       0.032213         0.8766 
  38   0.0000       0.033199         0.9034 
  39   0.0000       0.049231         1.3396 
  40   0.0000       0.052739         1.4351 
  41   0.0000       0.053837         1.4650 
  42   0.0000       0.054115         1.4726 
  43   0.0000       0.054279         1.4770 
  44   0.0000       0.061614         1.6766 
  45   0.0000       0.098577         2.6824 
  46   0.0000       0.102461         2.7881 
  47   0.0000       0.104015         2.8304 
  48   0.0000       0.110124         2.9966 
  49   0.0000       0.157731         4.2921 
  50   0.0000       0.159806         4.3486 
  51   0.0000       0.171192         4.6584 
  52   0.0000       0.174323         4.7436 
  53   0.0000       0.174552         4.7498 
  54   0.0000       0.185559         5.0493 
  55   0.0000       0.191402         5.2083 
  56   0.0000       0.194471         5.2918 
  57   0.0000       0.215734         5.8704 
  58   0.0000       0.215863         5.8739 
  59   0.0000       0.262250         7.1362 
  60   0.0000       0.280815         7.6414 
  61   0.0000       0.283378         7.7111 
  62   0.0000       0.322487         8.7753 
  63   0.0000       0.396186        10.7808 
  64   0.0000       0.396272        10.7831 
  65   0.0000       0.428112        11.6495 
  66   0.0000       0.440299        11.9811 
  67   0.0000       0.440459        11.9855 
  68   0.0000       0.453335        12.3359 
  69   0.0000       0.454817        12.3762 
  70   0.0000       0.531213        14.4550 
  71   0.0000       0.531802        14.4711 
  72   0.0000       0.543810        14.7978 
  73   0.0000       0.588500        16.0139 
  74   0.0000       0.594008        16.1638 
  75   0.0000       0.594951        16.1894 
  76   0.0000       0.602183        16.3862 
  77   0.0000       0.602907        16.4059 
  78   0.0000       0.603210        16.4142 
  79   0.0000       0.643436        17.5088 
  80   0.0000       0.649523        17.6744 
  81   0.0000       0.717426        19.5222 
  82   0.0000       0.717608        19.5271 
  83   0.0000       0.745820        20.2948 
  84   0.0000       0.775809        21.1108 
  85   0.0000       0.783817        21.3287 
  86   0.0000       0.785015        21.3613 
  87   0.0000       0.785057        21.3625 
  88   0.0000       0.842439        22.9239 
  89   0.0000       0.899792        24.4846 
  90   0.0000       0.900553        24.5053 
  91   0.0000       1.083117        29.4731 
  92   0.0000       1.125594        30.6290 
  93   0.0000       1.131049        30.7774 
  94   0.0000       1.397548        38.0292 
  95   0.0000       1.397635        38.0316 
  96   0.0000       1.401100        38.1259 
  97   0.0000       1.404921        38.2298 
  98   0.0000       1.413344        38.4590 
  99   0.0000       1.489071        40.5197 
 100   0.0000       1.502992        40.8985 
 101   0.0000       1.632338        44.4182 
 102   0.0000       1.633978        44.4628 
 103   0.0000       1.636220        44.5238 
 104   0.0000       1.646303        44.7982 
 105   0.0000       1.646321        44.7987 
 106   0.0000       1.748853        47.5887 
 107   0.0000       1.749826        47.6152 
 108   0.0000       1.776213        48.3332 
 109   0.0000       1.783421        48.5293 
 110   0.0000       1.788824        48.6764 
 111   0.0000       1.910142        51.9776 
 112   0.0000       1.915276        52.1173 
 113   0.0000       1.975194        53.7478 
 114   0.0000       1.986845        54.0648 
 115   0.0000       1.991846        54.2009 
 116   0.0000       2.024421        55.0873 
 117   0.0000       2.024423        55.0873 
 118   0.0000       2.081416        56.6382 
 119   0.0000       2.085682        56.7543 
 120   0.0000       2.094471        56.9935 
 121   0.0000       2.099592        57.1328 
 122   0.0000       2.156585        58.6837 
 123   0.0000       2.202038        59.9205 
 124   0.0000       2.214355        60.2557 
 125   0.0000       2.297671        62.5228 
 126   0.0000       2.321729        63.1774 
 127   0.0000       2.329007        63.3755 
 128   0.0000       2.376774        64.6753 
 129   0.0000       2.809415        76.4481 
 130   0.0000       2.811676        76.5096 
 131   0.0000       2.951995        80.3279 
 132   0.0000       2.954388        80.3930 
 133   0.0000       2.980620        81.1068 
 134   0.0000       3.506610        95.4197 
 135   0.0000       4.301220       117.0421 
 136   0.0000       4.888518       133.0233 
 137   0.0000       4.889677       133.0549 
 138   0.0000       4.901039       133.3640 
 139   0.0000       4.901154       133.3672 
 140   0.0000       4.937925       134.3678 
 141   0.0000       4.972370       135.3051 
 142   0.0000       5.198681       141.4633 
 143   0.0000       5.198901       141.4693 
 144   0.0000       5.209345       141.7535 
 145   0.0000       5.209761       141.7648 
 146   0.0000       5.230232       142.3218 
 147   0.0000       5.236127       142.4822 
 148   0.0000       5.249925       142.8577 
 149   0.0000       5.331363       145.0738 
 150   0.0000       5.357338       145.7806 
 151   0.0000       5.459751       148.5674 

                    ********************************
                    * MULLIKEN POPULATION ANALYSIS *
                    ********************************

--------------------------------------------
MULLIKEN ATOMIC CHARGES AND SPIN POPULATIONS
--------------------------------------------
   0 V :    0.305485    4.053831
   1 Br:   -0.305485   -0.053831
Sum of atomic charges         :   -0.0000000
Sum of atomic spin populations:    4.0000000

-----------------------------------------------------
MULLIKEN REDUCED ORBITAL CHARGES AND SPIN POPULATIONS
-----------------------------------------------------
CHARGE
  0 V s       :     6.693031  s :     6.693031
      pz      :     4.111948  p :    12.203588
      px      :     4.057477
      py      :     4.034164
      dz2     :     0.718101  d :     3.770696
      dxz     :     1.016123
      dyz     :     0.136955
      dx2y2   :     0.901389
      dxy     :     0.998128
      f0      :     0.005776  f :     0.023633
      f+1     :     0.008886
      f-1     :     0.008490
      f+2     :     0.000371
      f-2     :     0.000083
      f+3     :     0.000018
      f-3     :     0.000010
      g0      :     0.001317  g :     0.003567
      g+1     :     0.001114
      g-1     :     0.001074
      g+2     :     0.000044
      g-2     :    -0.000000
      g+3     :     0.000006
      g-3     :     0.000001
      g+4     :     0.000006
      g-4     :     0.000005
  1 Brs       :     8.013204  s :     8.013204
      pz      :     5.552074  p :    17.272634
      px      :     5.906795
      py      :     5.813765
      dz2     :     2.001070  d :    10.017398
      dxz     :     2.008844
      dyz     :     2.004899
      dx2y2   :     2.001317
      dxy     :     2.001268
      f0      :    -0.000159  f :     0.002249
      f+1     :     0.000734
      f-1     :     0.000639
      f+2     :     0.000513
      f-2     :     0.000517
      f+3     :     0.000003
      f-3     :     0.000003

SPIN
  0 V s       :     0.515183  s :     0.515183
      pz      :     0.041218  p :     0.083340
      px      :     0.033519
      py      :     0.008603
      dz2     :     0.568328  d :     3.455393
      dxz     :     0.943555
      dyz     :     0.044095
      dx2y2   :     0.901285
      dxy     :     0.998128
      f0      :    -0.000901  f :     0.000450
      f+1     :     0.001192
      f-1     :    -0.000223
      f+2     :     0.000297
      f-2     :     0.000080
      f+3     :     0.000009
      f-3     :    -0.000004
      g0      :    -0.000086  g :    -0.000535
      g+1     :    -0.000188
      g-1     :    -0.000306
      g+2     :     0.000031
      g-2     :    -0.000002
      g+3     :     0.000005
      g-3     :    -0.000000
      g+4     :     0.000006
      g-4     :     0.000005
  1 Brs       :     0.024218  s :     0.024218
      pz      :    -0.053178  p :    -0.089007
      px      :     0.016968
      py      :    -0.052797
      dz2     :     0.001490  d :     0.009361
      dxz     :     0.004750
      dyz     :     0.000539
      dx2y2   :     0.001308
      dxy     :     0.001272
      f0      :     0.000295  f :     0.001598
      f+1     :     0.000192
      f-1     :     0.000095
      f+2     :     0.000506
      f-2     :     0.000516
      f+3     :    -0.000002
      f-3     :    -0.000003


                     *******************************
                     * LOEWDIN POPULATION ANALYSIS *
                     *******************************

-------------------------------------------
LOEWDIN ATOMIC CHARGES AND SPIN POPULATIONS
-------------------------------------------
   0 V :   -0.159402    3.919328
   1 Br:    0.159402    0.080672

----------------------------------------------------
LOEWDIN REDUCED ORBITAL CHARGES AND SPIN POPULATIONS
----------------------------------------------------
CHARGE
  0 V s       :     6.510094  s :     6.510094
      pz      :     4.211004  p :    12.340491
      px      :     4.087848
      py      :     4.041640
      dz2     :     0.853537  d :     4.007906
      dxz     :     1.051255
      dyz     :     0.216217
      dx2y2   :     0.895438
      dxy     :     0.991459
      f0      :     0.097805  f :     0.270165
      f+1     :     0.091010
      f-1     :     0.080149
      f+2     :     0.000753
      f-2     :     0.000420
      f+3     :     0.000018
      f-3     :     0.000010
      g0      :     0.012410  g :     0.030747
      g+1     :     0.009653
      g-1     :     0.008591
      g+2     :     0.000048
      g-2     :     0.000027
      g+3     :     0.000006
      g-3     :     0.000001
      g+4     :     0.000006
      g-4     :     0.000005
  1 Brs       :     7.575746  s :     7.575746
      pz      :     5.674748  p :    16.997793
      px      :     5.694925
      py      :     5.628120
      dz2     :     2.112728  d :    10.179294
      dxz     :     2.041847
      dyz     :     2.016209
      dx2y2   :     2.004084
      dxy     :     2.004425
      f0      :     0.048289  f :     0.087764
      f+1     :     0.023434
      f-1     :     0.009061
      f+2     :     0.003310
      f-2     :     0.003664
      f+3     :     0.000003
      f-3     :     0.000003

SPIN
  0 V s       :     0.470193  s :     0.470193
      pz      :     0.037146  p :     0.091804
      px      :     0.050171
      py      :     0.004487
      dz2     :     0.544077  d :     3.357094
      dxz     :     0.889123
      dyz     :     0.037105
      dx2y2   :     0.895332
      dxy     :     0.991457
      f0      :    -0.001069  f :     0.001038
      f+1     :     0.005335
      f-1     :    -0.004285
      f+2     :     0.000658
      f-2     :     0.000396
      f+3     :     0.000009
      f-3     :    -0.000004
      g0      :    -0.000308  g :    -0.000801
      g+1     :     0.000157
      g-1     :    -0.000723
      g+2     :     0.000034
      g-2     :     0.000024
      g+3     :     0.000005
      g-3     :    -0.000000
      g+4     :     0.000006
      g-4     :     0.000005
  1 Brs       :     0.023253  s :     0.023253
      pz      :     0.009961  p :    -0.014299
      px      :     0.013607
      py      :    -0.037867
      dz2     :     0.010889  d :     0.046836
      dxz     :     0.026580
      dyz     :     0.000811
      dx2y2   :     0.004101
      dxy     :     0.004455
      f0      :     0.002425  f :     0.024882
      f+1     :     0.015017
      f-1     :     0.000479
      f+2     :     0.003302
      f-2     :     0.003664
      f+3     :    -0.000002
      f-3     :    -0.000003


                      *****************************
                      * MAYER POPULATION ANALYSIS *
                      *****************************

  NA   - Mulliken gross atomic population
  ZA   - Total nuclear charge
  QA   - Mulliken gross atomic charge
  VA   - Mayer's total valence
  BVA  - Mayer's bonded valence
  FA   - Mayer's free valence

  ATOM       NA         ZA         QA         VA         BVA        FA
  0 V     22.6945    23.0000     0.3055     5.1141     1.2864     3.8278
  1 Br    35.3055    35.0000    -0.3055     1.2958     1.2864     0.0095

  Mayer bond orders larger than 0.100000
B(  0-V ,  1-Br) :   1.2864 

-------
TIMINGS
-------

Total SCF time: 0 days 0 hours 0 min 0 sec 

Total time                  ....       0.866 sec
Sum of individual times     ....       0.702 sec  ( 81.1%)

Fock matrix formation       ....       0.486 sec  ( 56.1%)
  Split-RI-J                ....       0.305 sec  ( 62.7% of F)
  XC integration            ....       0.088 sec  ( 18.1% of F)
    Basis function eval.    ....       0.011 sec  ( 12.3% of XC)
    Density eval.           ....       0.013 sec  ( 14.7% of XC)
    XC-Functional eval.     ....       0.002 sec  (  2.8% of XC)
    XC-Potential eval.      ....       0.035 sec  ( 39.2% of XC)
Diagonalization             ....       0.011 sec  (  1.2%)
Density matrix formation    ....       0.002 sec  (  0.2%)
Population analysis         ....       0.008 sec  (  0.9%)
Initial guess               ....       0.014 sec  (  1.6%)
Orbital Transformation      ....       0.000 sec  (  0.0%)
Orbital Orthonormalization  ....       0.008 sec  (  0.9%)
DIIS solution               ....       0.002 sec  (  0.2%)
Grid generation             ....       0.181 sec  ( 20.9%)


-------------------------------------------------------------------------------
                          DFT DISPERSION CORRECTION                            
                                                                               
                              DFTD3 V3.1  Rev 1                                
                          USING Becke-Johnson damping                          
-------------------------------------------------------------------------------
The TPSS functional is recognized
Active option DFTDOPT                   ...         4   

molecular C6(AA) [au] = 1228.125704 


            DFT-D V3
 parameters
 s6 scaling factor         :     1.0000 
 a1 scaling factor         :     0.4535 
 s8 scaling factor         :     1.9435 
 a2 scaling factor         :     4.4752 
 ad hoc parameters k1-k3   :    16.0000     1.3333    -4.0000 

 Edisp/kcal,au: -1.308081676731  -0.002084560618 
 E6   /kcal   :  -0.406528350 
 E8   /kcal   :  -0.901553326 
 % E8         :  68.921791536 

-------------------------   ----------------
Dispersion correction           -0.002084561
-------------------------   ----------------


-------------------------   --------------------
FINAL SINGLE POINT ENERGY     -3518.166769258954
-------------------------   --------------------

                                *** OPTIMIZATION RUN DONE ***

                            ***************************************
                            *     ORCA property calculations      *
                            ***************************************

                                    ---------------------
                                    Active property flags
                                    ---------------------
   (+) Dipole Moment


------------------------------------------------------------------------------
                       ORCA ELECTRIC PROPERTIES CALCULATION
------------------------------------------------------------------------------

Dipole Moment Calculation                       ... on
Quadrupole Moment Calculation                   ... off
Polarizability Calculation                      ... off
GBWName                                         ... 16_VBr.gbw
Electron density file                           ... 16_VBr.scfp
The origin for moment calculation is the CENTER OF MASS  = ( 0.000000,  0.000000  2.383474)

-------------
DIPOLE MOMENT
-------------
                                X             Y             Z
Electronic contribution:     -0.00000      -0.00000       0.21901
Nuclear contribution   :      0.00000       0.00000      -1.86860
                        -----------------------------------------
Total Dipole Moment    :     -0.00000      -0.00000      -1.64960
                        -----------------------------------------
Magnitude (a.u.)       :      1.64960
Magnitude (Debye)      :      4.19294



--------------------
Rotational spectrum 
--------------------
 
Rotational constants in cm-1:     0.000000     0.097224     0.097224 
Rotational constants in MHz :     0.000000  2914.715129  2914.715129 

 Dipole components along the rotational axes: 
x,y,z [a.u.] :    -1.649598    -0.000000    -0.000000 
x,y,z [Debye]:    -4.192944    -0.000000    -0.000000 

 

Timings for individual modules:

Sum of individual times         ...       97.978 sec (=   1.633 min)
GTO integral calculation        ...       34.535 sec (=   0.576 min)  35.2 %
SCF iterations                  ...       27.827 sec (=   0.464 min)  28.4 %
SCF Gradient evaluation         ...       35.381 sec (=   0.590 min)  36.1 %
Geometry relaxation             ...        0.235 sec (=   0.004 min)   0.2 %
                             ****ORCA TERMINATED NORMALLY****
TOTAL RUN TIME: 0 days 0 hours 1 minutes 38 seconds 983 msec
