
                                 *****************
                                 * O   R   C   A *
                                 *****************

           --- An Ab Initio, DFT and Semiempirical electronic structure package ---

                  #######################################################
                  #                        -***-                        #
                  #          Department of theory and spectroscopy      #
                  #               Directorship: Frank Neese             #
                  #        Max Planck Institute fuer Kohlenforschung    #
                  #                Kaiser Wilhelm Platz 1               #
                  #                 D-45470 Muelheim/Ruhr               #
                  #                      Germany                        #
                  #                                                     #
                  #                  All rights reserved                #
                  #                        -***-                        #
                  #######################################################


                         Program Version 4.2.0 -  RELEASE  -


 With contributions from (in alphabetic order):
   Daniel Aravena         : Magnetic Suceptibility
   Michael Atanasov       : Ab Initio Ligand Field Theory (pilot matlab implementation)
   Alexander A. Auer      : GIAO ZORA, VPT2
   Ute Becker             : Parallelization
   Giovanni Bistoni       : ED, misc. LED, open-shell LED, HFLED
   Martin Brehm           : Molecular dynamics
   Dmytro Bykov           : SCF Hessian
   Vijay G. Chilkuri      : MRCI spin determinant printing, contributions to CSF-ICE
   Dipayan Datta          : RHF DLPNO-CCSD density
   Achintya Kumar Dutta   : EOM-CC, STEOM-CC
   Dmitry Ganyushin       : Spin-Orbit,Spin-Spin,Magnetic field MRCI
   Miquel Garcia          : C-PCM Hessian, Gaussian charge scheme
   Yang Guo               : DLPNO-NEVPT2, CIM, IAO-localization
   Andreas Hansen         : Spin unrestricted coupled pair/coupled cluster methods
   Benjamin Helmich-Paris : CASSCF linear response (MC-RPA)
   Lee Huntington         : MR-EOM, pCC
   Robert Izsak           : Overlap fitted RIJCOSX, COSX-SCS-MP3, EOM
   Christian Kollmar      : KDIIS, OOCD, Brueckner-CCSD(T), CCSD density
   Simone Kossmann        : Meta GGA functionals, TD-DFT gradient, OOMP2, MP2 Hessian
   Martin Krupicka        : AUTO-CI
   Lucas Lang             : DCDCAS
   Dagmar Lenk            : GEPOL surface, SMD
   Dimitrios Liakos       : Extrapolation schemes; Compound Job, initial MDCI parallelization
   Dimitrios Manganas     : Further ROCIS development; embedding schemes
   Dimitrios Pantazis     : SARC Basis sets
   Taras Petrenko         : DFT Hessian,TD-DFT gradient, ASA, ECA, R-Raman, ABS, FL, XAS/XES, NRVS
   Peter Pinski           : DLPNO-MP2, DLPNO-MP2 Gradient
   Christoph Reimann      : Effective Core Potentials
   Marius Retegan         : Local ZFS, SOC
   Christoph Riplinger    : Optimizer, TS searches, QM/MM, DLPNO-CCSD(T), (RO)-DLPNO pert. Triples
   Tobias Risthaus        : Range-separated hybrids, TD-DFT gradient, RPA, STAB
   Michael Roemelt        : Original ROCIS implementation
   Masaaki Saitow         : Open-shell DLPNO-CCSD energy and density
   Barbara Sandhoefer     : DKH picture change effects
   Avijit Sen             : IP-ROCIS
   Kantharuban Sivalingam : CASSCF convergence, NEVPT2, FIC-MRCI
   Bernardo de Souza      : ESD, SOC TD-DFT
   Georgi Stoychev        : AutoAux, RI-MP2 NMR
   Willem Van den Heuvel  : Paramagnetic NMR
   Boris Wezisla          : Elementary symmetry handling
   Frank Wennmohs         : Technical directorship


 We gratefully acknowledge several colleagues who have allowed us to
 interface, adapt or use parts of their codes:
   Stefan Grimme, W. Hujo, H. Kruse,             : VdW corrections, initial TS optimization,
                  C. Bannwarth                     DFT functionals, gCP, sTDA/sTD-DF
   Ed Valeev, F. Pavosevic, A. Kumar             : LibInt (2-el integral package), F12 methods
   Garnet Chan, S. Sharma, J. Yang, R. Olivares  : DMRG
   Ulf Ekstrom                                   : XCFun DFT Library
   Mihaly Kallay                                 : mrcc  (arbitrary order and MRCC methods)
   Andreas Klamt, Michael Diedenhofen            : otool_cosmo (COSMO solvation model)
   Jiri Pittner, Ondrej Demel                    : Mk-CCSD
   Frank Weinhold                                : gennbo (NPA and NBO analysis)
   Christopher J. Cramer and Donald G. Truhlar   : smd solvation model
   Lars Goerigk                                  : TD-DFT with DH, B97 family of functionals
   V. Asgeirsson, H. Jonsson                     : NEB implementation
   FAccTs GmbH                                   : IRC, NEB, NEB-TS, Multilevel, MM, QM/MM, CI optimization
   S Lehtola, MJT Oliveira, MAL Marques          : LibXC Library


 Your calculation uses the libint2 library for the computation of 2-el integrals
 For citations please refer to: http://libint.valeyev.net

 Your ORCA version has been built with support for libXC version: 4.2.3
 For citations please refer to: https://tddft.org/programs/libxc/

 This ORCA versions uses:
   CBLAS   interface :  Fast vector & matrix operations
   LAPACKE interface :  Fast linear algebra routines
   SCALAPACK package :  Parallel linear algebra routines


Your calculation utilizes the atom-pairwise dispersion correction
with the Becke-Johnson damping scheme (D3BJ)
Cite in your paper:
S.Grimme, S.Ehrlich, L.Goerigk, J Comput Chem, (2011), 32, 1456–1465 
S.Grimme, J.Antony, S.Ehrlich and H.Krieg, J.Chem.Phys., 132, (2010), 154104 
   

----- Orbital basis set information -----
Your calculation utilizes the basis: aug-cc-pVTZ 
    H, B-Ne : Obtained from the ccRepo (grant-hill.group.shef.ac.uk/ccrepo) Feb. 2017
              R. A. Kendall, T. H. Dunning, Jr., R. J. Harrison, J. Chem. Phys. 96, 6796 (1992)
         He : Obtained from the ccRepo (grant-hill.group.shef.ac.uk/ccrepo) Feb. 2017
              D. E. Woon, T. H. Dunning, Jr., J. Chem. Phys. 100, 2975 (1994)
  Li-Be, Na : Obtained from the ccRepo (grant-hill.group.shef.ac.uk/ccrepo) Feb. 2017
              B. P. Prascher, D. E. Woon, K. A. Peterson, T. H. Dunning, Jr., A. K. Wilson, Theor. Chem. Acc. 128, 69 (2011)
         Mg : Obtained from the Peterson Research Group Website (tyr0.chem.wsu.edu/~kipeters) Feb. 2017
              B. P. Prascher, D. E. Woon, K. A. Peterson, T. H. Dunning, Jr., A. K. Wilson, Theor. Chem. Acc. 128, 69 (2011)
      Al-Ar : Obtained from the ccRepo (grant-hill.group.shef.ac.uk/ccrepo) Feb. 2017
              D. E. Woon, T. H. Dunning, Jr., J. Chem. Phys. 98, 1358 (1993)
      Sc-Zn : Obtained from the ccRepo (grant-hill.group.shef.ac.uk/ccrepo) Feb. 2017
              N. B. Balabanov, K. A. Peterson, J. Chem. Phys. 123, 064107 (2005)
              N. B. Balabanov, K. A. Peterson, J. Chem. Phys. 125, 074110 (2006)
      Ga-Kr : Obtained from the ccRepo (grant-hill.group.shef.ac.uk/ccrepo) Feb. 2017
              A. K. Wilson, D. E. Woon, K. A. Peterson, T. H. Dunning, Jr., J. Chem. Phys. 110, 7667 (1999)
     Ag, Au : Obtained from the Peterson Research Group Website (tyr0.chem.wsu.edu/~kipeters) Feb. 2017
              K. A. Peterson, C. Puzzarini, Theor. Chem. Acc. 114, 283 (2005)

----- AuxJ basis set information -----
Your calculation utilizes the auxiliary basis: def2/J
   F. Weigend, Phys. Chem. Chem. Phys. 8, 1057 (2006).

================================================================================
                                        WARNINGS
                       Please study these warnings very carefully!
================================================================================


WARNING: your system is open-shell and RHF/RKS was chosen
  ===> : WILL SWITCH to UHF/UKS


WARNING: Geometry Optimization
  ===> : Switching off AutoStart
         For restart on a previous wavefunction, please use MOREAD

INFO   : the flag for use of LIBINT has been found!

================================================================================
                                       INPUT FILE
================================================================================
NAME = 20_CrF.in
|  1> #
|  2> # 20_CrF tpss/aug-cc-pvtz
|  3> #
|  4> ! tpss d3bj aug-cc-pvtz def2/j opt xyzfile
|  5> 
|  6> *xyz 0 6
|  7> Cr 0.0 0.0 0.0
|  8> F 0.0 0.0 2.0
|  9> *
| 10> 
| 11> %pal
| 12> nprocs 24
| 13> end
| 14> 
| 15> 
| 16>                          ****END OF INPUT****
================================================================================

                       *****************************
                       * Geometry Optimization Run *
                       *****************************

Geometry optimization settings:
Update method            Update   .... BFGS
Choice of coordinates    CoordSys .... Z-matrix Internals
Initial Hessian          InHess   .... Almoef's Model

Convergence Tolerances:
Energy Change            TolE     ....  5.0000e-06 Eh
Max. Gradient            TolMAXG  ....  3.0000e-04 Eh/bohr
RMS Gradient             TolRMSG  ....  1.0000e-04 Eh/bohr
Max. Displacement        TolMAXD  ....  4.0000e-03 bohr
RMS Displacement         TolRMSD  ....  2.0000e-03 bohr
Strict Convergence                ....  False
------------------------------------------------------------------------------
                        ORCA OPTIMIZATION COORDINATE SETUP
------------------------------------------------------------------------------

The optimization will be done in new redundant internal coordinates
Making redundant internal coordinates   ...  (new redundants) done
Evaluating the initial hessian          ...  (Almloef) done
Evaluating the coordinates              ...  done
Calculating the B-matrix                .... done
Calculating the G-matrix                .... done
Diagonalizing the G-matrix              .... done
The first mode is                       ....    0
The number of degrees of freedom        ....    1

    -----------------------------------------------------------------
                    Redundant Internal Coordinates


    -----------------------------------------------------------------
         Definition                    Initial Value    Approx d2E/dq
    -----------------------------------------------------------------
      1. B(F   1,Cr  0)                  2.0000         0.559597   
    -----------------------------------------------------------------

Number of atoms                         .... 2
Number of degrees of freedom            .... 1

         *************************************************************
         *                GEOMETRY OPTIMIZATION CYCLE   1            *
         *************************************************************
---------------------------------
CARTESIAN COORDINATES (ANGSTROEM)
---------------------------------
  Cr     0.000000    0.000000    0.000000
  F      0.000000    0.000000    2.000000

----------------------------
CARTESIAN COORDINATES (A.U.)
----------------------------
  NO LB      ZA    FRAG     MASS         X           Y           Z
   0 Cr   24.0000    0    52.000    0.000000    0.000000    0.000000
   1 F     9.0000    0    18.998    0.000000    0.000000    3.779452

--------------------------------
INTERNAL COORDINATES (ANGSTROEM)
--------------------------------
 Cr     0   0   0     0.000000000000     0.00000000     0.00000000
 F      1   0   0     2.000000000000     0.00000000     0.00000000

---------------------------
INTERNAL COORDINATES (A.U.)
---------------------------
 Cr     0   0   0     0.000000000000     0.00000000     0.00000000
 F      1   0   0     3.779452267843     0.00000000     0.00000000

---------------------
BASIS SET INFORMATION
---------------------
There are 2 groups of distinct atoms

 Group   1 Type Cr  : 116s77p23d3f2g contracted to 8s7p5d3f2g pattern {19191919191911/151515151511/77711/111/11}
 Group   2 Type F   : 19s6p3d2f contracted to 5s4p3d2f pattern {88111/3111/111/11}

Atom   0Cr   basis set group =>   1
Atom   1F    basis set group =>   2
---------------------------------
AUXILIARY/J BASIS SET INFORMATION
---------------------------------
There are 2 groups of distinct atoms

 Group   1 Type Cr  : 19s5p5d3f3g contracted to 8s5p5d2f3g pattern {121111111/11111/11111/21/111}
 Group   2 Type F   : 12s5p4d2f1g contracted to 6s4p3d1f1g pattern {711111/2111/211/2/1}

Atom   0Cr   basis set group =>   1
Atom   1F    basis set group =>   2


           ************************************************************
           *        Program running with 24 parallel MPI-processes    *
           *              working on a common directory               *
           ************************************************************
------------------------------------------------------------------------------
                           ORCA GTO INTEGRAL CALCULATION
                           -- RI-GTO INTEGRALS CHOSEN --
------------------------------------------------------------------------------

                         BASIS SET STATISTICS AND STARTUP INFO

Gaussian basis set:
 # of primitive gaussian shells          ...  251
 # of primitive gaussian functions       ...  567
 # of contracted shells                  ...   39
 # of contracted basis functions         ...  139
 Highest angular momentum                ...    4
 Maximum contraction depth               ...   19
Auxiliary gaussian basis set:
 # of primitive gaussian shells          ...   59
 # of primitive gaussian functions       ...  177
 # of contracted shells                  ...   38
 # of contracted aux-basis functions     ...  138
 Highest angular momentum                ...    4
 Maximum contraction depth               ...   12
Ratio of auxiliary to basis functions    ...  0.99
Integral package used                  ... LIBINT
 One Electron integrals                  ... done
 Ordering auxiliary basis shells         ... done
 Integral threshhold             Thresh  ...  2.500e-11
 Primitive cut-off               TCut    ...  2.500e-12
 Pre-screening matrix                    ... done
 Shell pair data                         ... 
 Ordering of the shell pairs             ... done (   0.000 sec) 780 of 780 pairs
 Determination of significant pairs      ... done (   0.000 sec)
 Creation of shell pair data             ... done (   0.001 sec)
 Storage of shell pair data              ... done (   0.028 sec)
 Shell pair data done in (   0.029 sec)
 Computing two index integrals           ... done
 Cholesky decomposition of the V-matrix  ... done


Timings:
 Total evaluation time                   ...   2.188 sec (  0.036 min)
 One electron matrix time                ...   0.039 sec (  0.001 min) =  1.8%
 Schwartz matrix evaluation time         ...   2.090 sec (  0.035 min) = 95.5%
 Two index repulsion integral time       ...   0.001 sec (  0.000 min) =  0.0%
 Cholesky decomposition of V             ...   0.001 sec (  0.000 min) =  0.0%
 Three index repulsion integral time     ...   0.000 sec (  0.000 min) =  0.0%



           ************************************************************
           *        Program running with 24 parallel MPI-processes    *
           *              working on a common directory               *
           ************************************************************
-------------------------------------------------------------------------------
                                 ORCA SCF
-------------------------------------------------------------------------------

------------
SCF SETTINGS
------------
Hamiltonian:
 Density Functional     Method          .... DFT(GTOs)
 Exchange Functional    Exchange        .... TPSS
 Correlation Functional Correlation     .... TPSS
 LDA part of GGA corr.  LDAOpt          .... PW91-LDA
 Gradients option       PostSCFGGA      .... off
   Density functional embedding theory  .... OFF
   NL short-range parameter             ....  5.000000
 RI-approximation to the Coulomb term is turned on
   Number of auxiliary basis functions  .... 138


General Settings:
 Integral files         IntName         .... 20_CrF
 Hartree-Fock type      HFTyp           .... UHF
 Total Charge           Charge          ....    0
 Multiplicity           Mult            ....    6
 Number of Electrons    NEL             ....   33
 Basis Dimension        Dim             ....  139
 Nuclear Repulsion      ENuc            ....     57.1511384964 Eh

Convergence Acceleration:
 DIIS                   CNVDIIS         .... on
   Start iteration      DIISMaxIt       ....    12
   Startup error        DIISStart       ....  0.200000
   # of expansion vecs  DIISMaxEq       ....     5
   Bias factor          DIISBfac        ....   1.050
   Max. coefficient     DIISMaxC        ....  10.000
 Newton-Raphson         CNVNR           .... off
 SOSCF                  CNVSOSCF        .... off
 Level Shifting         CNVShift        .... on
   Level shift para.    LevelShift      ....    0.2500
   Turn off err/grad.   ShiftErr        ....    0.0010
 Zerner damping         CNVZerner       .... off
 Static damping         CNVDamp         .... on
   Fraction old density DampFac         ....    0.7000
   Max. Damping (<1)    DampMax         ....    0.9800
   Min. Damping (>=0)   DampMin         ....    0.0000
   Turn off err/grad.   DampErr         ....    0.1000
 Fernandez-Rico         CNVRico         .... off

SCF Procedure:
 Maximum # iterations   MaxIter         ....   125
 SCF integral mode      SCFMode         .... Direct
   Integral package                     .... LIBINT
 Reset frequency        DirectResetFreq ....    20
 Integral Threshold     Thresh          ....  2.500e-11 Eh
 Primitive CutOff       TCut            ....  2.500e-12 Eh

Convergence Tolerance:
 Convergence Check Mode ConvCheckMode   .... Total+1el-Energy
 Convergence forced     ConvForced      .... 0
 Energy Change          TolE            ....  1.000e-08 Eh
 1-El. energy change                    ....  1.000e-05 Eh
 DIIS Error             TolErr          ....  5.000e-07


Diagonalization of the overlap matrix:
Smallest eigenvalue                        ... 9.259e-05
Time for diagonalization                   ...    0.006 sec
Threshold for overlap eigenvalues          ... 1.000e-08
Number of eigenvalues below threshold      ... 0
Time for construction of square roots      ...    0.002 sec
Total time needed                          ...    0.008 sec

-------------------
DFT GRID GENERATION
-------------------

General Integration Accuracy     IntAcc      ...  4.340
Radial Grid Type                 RadialGrid  ... Gauss-Chebyshev
Angular Grid (max. acc.)         AngularGrid ... Lebedev-110
Angular grid pruning method      GridPruning ... 3 (G Style)
Weight generation scheme         WeightScheme... Becke
Basis function cutoff            BFCut       ...    1.0000e-11
Integration weight cutoff        WCut        ...    1.0000e-14
Grids for H and He will be reduced by one unit

# of grid points (after initial pruning)     ...   4712 (   0.0 sec)
# of grid points (after weights+screening)   ...   4689 (   0.0 sec)
nearest neighbour list constructed           ...    0.0 sec
Grid point re-assignment to atoms done       ...    0.0 sec
Grid point division into batches done        ...    0.0 sec
Reduced shell lists constructed in    0.0 sec

Total number of grid points                  ...     4689
Total number of batches                      ...       74
Average number of points per batch           ...       63
Average number of grid points per atom       ...     2344
Average number of shells per batch           ...    21.60 (55.38%)
Average number of basis functions per batch  ...    66.40 (47.77%)
Average number of large shells per batch     ...    15.20 (70.37%)
Average number of large basis fcns per batch ...    44.00 (66.27%)
Maximum spatial batch extension              ...  18.98, 28.73, 16.15 au
Average spatial batch extension              ...   0.94,  1.30,  0.87 au

Time for grid setup =    0.024 sec

------------------------------
INITIAL GUESS: MODEL POTENTIAL
------------------------------
Loading Hartree-Fock densities                     ... done
Calculating cut-offs                               ... done
Setting up the integral package                    ... done
Initializing the effective Hamiltonian             ... done
Starting the Coulomb interaction                   ... done (   0.0 sec)
Reading the grid                                   ... done
Mapping shells                                     ... done
Starting the XC term evaluation                    ... done (   0.0 sec)
  promolecular density results
     # of electrons  =     33.000525477
     EX              =    -57.137606498
     EC              =     -1.315102447
     EX+EC           =    -58.452708945
Transforming the Hamiltonian                       ... done (   0.0 sec)
Diagonalizing the Hamiltonian                      ... done (   0.0 sec)
Back transforming the eigenvectors                 ... done (   0.0 sec)
Now organizing SCF variables                       ... done
                      ------------------
                      INITIAL GUESS DONE (   0.1 sec)
                      ------------------
--------------
SCF ITERATIONS
--------------
ITER       Energy         Delta-E        Max-DP      RMS-DP      [F,P]     Damp
               ***  Starting incremental Fock matrix formation  ***
  0  -1144.3334944933   0.000000000000 0.07720547  0.00160100  0.2991507 0.7000
  1  -1144.3840515053  -0.050557011959 0.03890771  0.00067965  0.0527336 0.7000
                               ***Turning on DIIS***
  2  -1144.3953179847  -0.011266479374 0.13093742  0.00143183  0.0417850 0.0000
  3  -1144.4262829785  -0.030964993847 0.04204829  0.00093473  0.0374623 0.0000
  4  -1144.4304361184  -0.004153139877 0.03729643  0.00075652  0.0443753 0.0000
  5  -1144.4317262051  -0.001290086693 0.01037375  0.00018644  0.0086245 0.0000
  6  -1144.4320160402  -0.000289835081 0.00682911  0.00011740  0.0044847 0.0000
  7  -1144.4321115494  -0.000095509237 0.00525626  0.00005220  0.0015128 0.0000
  8  -1144.4321491968  -0.000037647365 0.00439431  0.00003865  0.0011307 0.0000
  9  -1144.4321716668  -0.000022470015 0.02048178  0.00014821  0.0008990 0.0000
 10  -1144.4321815761  -0.000009909311 0.00062003  0.00001245  0.0030031 0.0000
 11  -1144.4321851222  -0.000003546109 0.00046100  0.00000605  0.0026086 0.0000
 12  -1144.4321900890  -0.000004966845 0.00051570  0.00000877  0.0021648 0.0000
 13  -1144.4321957823  -0.000005693264 0.00040772  0.00000726  0.0015552 0.0000
 14  -1144.4321979841  -0.000002201811 0.00115481  0.00002016  0.0013538 0.0000
 15  -1144.4322024480  -0.000004463837 0.00303263  0.00002342  0.0001999 0.0000
 16  -1144.4322019742   0.000000473807 0.00066853  0.00000541  0.0006064 0.0000
 17  -1144.4322031103  -0.000001136154 0.00053268  0.00000414  0.0002543 0.0000
 18  -1144.4322034824  -0.000000372125 0.00015686  0.00000133  0.0000670 0.0000
 19  -1144.4322034320   0.000000050472 0.00013730  0.00000105  0.0000757 0.0000
               *** Restarting incremental Fock matrix formation ***
                                   *** Resetting DIIS ***
 20  -1144.4322033289   0.000000103102 0.00008988  0.00000096  0.0000612 0.0000
 21  -1144.4322033756  -0.000000046694 0.00012052  0.00000107  0.0000327 0.0000
 22  -1144.4322033583   0.000000017226 0.00005876  0.00000055  0.0000307 0.0000
 23  -1144.4322033561   0.000000002268 0.00000687  0.00000008  0.0000026 0.0000
 24  -1144.4322033624  -0.000000006347 0.00000657  0.00000006  0.0000034 0.0000
                 **** Energy Check signals convergence ****

               *****************************************************
               *                     SUCCESS                       *
               *           SCF CONVERGED AFTER  25 CYCLES          *
               *****************************************************

Setting up the final grid:

General Integration Accuracy     IntAcc      ...  4.670
Radial Grid Type                 RadialGrid  ... Gauss-Chebyshev
Angular Grid (max. acc.)         AngularGrid ... Lebedev-302
Angular grid pruning method      GridPruning ... 3 (G Style)
Weight generation scheme         WeightScheme... Becke
Basis function cutoff            BFCut       ...    1.0000e-11
Integration weight cutoff        WCut        ...    1.0000e-14
Grids for H and He will be reduced by one unit

# of grid points (after initial pruning)     ...  15936 (   0.0 sec)
# of grid points (after weights+screening)   ...  15893 (   0.0 sec)
nearest neighbour list constructed           ...    0.0 sec
Grid point re-assignment to atoms done       ...    0.0 sec
Grid point division into batches done        ...    0.1 sec
Reduced shell lists constructed in    0.1 sec

Total number of grid points                  ...    15893
Total number of batches                      ...      249
Average number of points per batch           ...       63
Average number of grid points per atom       ...     7946
Average number of shells per batch           ...    16.42 (42.09%)
Average number of basis functions per batch  ...    44.08 (31.71%)
Average number of large shells per batch     ...     9.83 (59.90%)
Average number of large basis fcns per batch ...    27.83 (63.14%)
Maximum spatial batch extension              ...  28.57, 31.41, 16.79 au
Average spatial batch extension              ...   0.89,  0.95,  0.67 au

Final grid set up in    0.1 sec
Final integration                            ... done (   0.1 sec)
Change in XC energy                          ...     0.001502226
Integrated number of electrons               ...    32.999990532
Previous integrated no of electrons          ...    32.999533655

----------------
TOTAL SCF ENERGY
----------------

Total Energy       :        -1144.43070114 Eh          -31141.54258 eV

Components:
Nuclear Repulsion  :           57.15113850 Eh            1555.16154 eV
Electronic Energy  :        -1201.58183963 Eh          -32696.70412 eV
One Electron Energy:        -1691.90735967 Eh          -46039.13984 eV
Two Electron Energy:          490.32552004 Eh           13342.43572 eV

Virial components:
Potential Energy   :        -2286.44173383 Eh          -62217.24264 eV
Kinetic Energy     :         1142.01103269 Eh           31075.70006 eV
Virial Ratio       :            2.00211878


DFT components:
N(Alpha)           :       18.999995606033 electrons
N(Beta)            :       13.999994926073 electrons
N(Total)           :       32.999990532106 electrons
E(X)               :      -57.902324810198 Eh       
E(C)               :       -1.309904594514 Eh       
E(XC)              :      -59.212229404712 Eh       
DFET-embed. en.    :        0.000000000000 Eh       

---------------
SCF CONVERGENCE
---------------

  Last Energy change         ...   -8.0240e-10  Tolerance :   1.0000e-08
  Last MAX-Density change    ...    2.4027e-07  Tolerance :   1.0000e-07
  Last RMS-Density change    ...    3.8564e-09  Tolerance :   5.0000e-09
  Last DIIS Error            ...    2.7124e-07  Tolerance :   5.0000e-07

             **** THE GBW FILE WAS UPDATED (20_CrF.gbw) ****
             **** DENSITY FILE WAS UPDATED (20_CrF.scfp) ****
             **** ENERGY FILE WAS UPDATED (20_CrF.en.tmp) ****
----------------------
UHF SPIN CONTAMINATION
----------------------

Warning: in a DFT calculation there is little theoretical justification to 
         calculate <S**2> as in Hartree-Fock theory. We will do it anyways
         but you should keep in mind that the values have only limited relevance

Expectation value of <S**2>     :     8.767364
Ideal value S*(S+1) for S=2.5   :     8.750000
Deviation                       :     0.017364

             **** THE GBW FILE WAS UPDATED (20_CrF.gbw) ****
             **** DENSITY FILE WAS UPDATED (20_CrF.scfp) ****
----------------
ORBITAL ENERGIES
----------------
                 SPIN UP ORBITALS
  NO   OCC          E(Eh)            E(eV) 
   0   1.0000    -214.937220     -5848.7391 
   1   1.0000     -24.336515      -662.2302 
   2   1.0000     -24.311718      -661.5555 
   3   1.0000     -20.638827      -561.6110 
   4   1.0000     -20.637444      -561.5734 
   5   1.0000     -20.637444      -561.5734 
   6   1.0000      -2.800872       -76.2156 
   7   1.0000      -1.777916       -48.3795 
   8   1.0000      -1.772511       -48.2325 
   9   1.0000      -1.772511       -48.2325 
  10   1.0000      -0.972682       -26.4680 
  11   1.0000      -0.304574        -8.2879 
  12   1.0000      -0.277577        -7.5532 
  13   1.0000      -0.277577        -7.5532 
  14   1.0000      -0.194191        -5.2842 
  15   1.0000      -0.194137        -5.2827 
  16   1.0000      -0.189629        -5.1601 
  17   1.0000      -0.189629        -5.1601 
  18   1.0000      -0.185573        -5.0497 
  19   0.0000      -0.134322        -3.6551 
  20   0.0000      -0.043322        -1.1789 
  21   0.0000      -0.043322        -1.1789 
  22   0.0000      -0.005129        -0.1396 
  23   0.0000       0.004180         0.1138 
  24   0.0000       0.023819         0.6482 
  25   0.0000       0.023819         0.6482 
  26   0.0000       0.040827         1.1110 
  27   0.0000       0.040852         1.1116 
  28   0.0000       0.046432         1.2635 
  29   0.0000       0.047436         1.2908 
  30   0.0000       0.047436         1.2908 
  31   0.0000       0.058083         1.5805 
  32   0.0000       0.102708         2.7948 
  33   0.0000       0.133360         3.6289 
  34   0.0000       0.133360         3.6289 
  35   0.0000       0.168532         4.5860 
  36   0.0000       0.187352         5.0981 
  37   0.0000       0.187465         5.1012 
  38   0.0000       0.207174         5.6375 
  39   0.0000       0.207174         5.6375 
  40   0.0000       0.226750         6.1702 
  41   0.0000       0.230876         6.2824 
  42   0.0000       0.230876         6.2824 
  43   0.0000       0.247158         6.7255 
  44   0.0000       0.415565        11.3081 
  45   0.0000       0.492002        13.3881 
  46   0.0000       0.492032        13.3889 
  47   0.0000       0.496137        13.5006 
  48   0.0000       0.496137        13.5006 
  49   0.0000       0.563424        15.3316 
  50   0.0000       0.563424        15.3316 
  51   0.0000       0.595183        16.1958 
  52   0.0000       0.597399        16.2561 
  53   0.0000       0.597399        16.2561 
  54   0.0000       0.636988        17.3333 
  55   0.0000       0.737402        20.0657 
  56   0.0000       0.737402        20.0657 
  57   0.0000       0.754528        20.5318 
  58   0.0000       0.755132        20.5482 
  59   0.0000       0.865065        23.5396 
  60   0.0000       0.866580        23.5808 
  61   0.0000       0.898117        24.4390 
  62   0.0000       0.943253        25.6672 
  63   0.0000       0.984293        26.7840 
  64   0.0000       0.984293        26.7840 
  65   0.0000       1.244712        33.8703 
  66   0.0000       1.244712        33.8703 
  67   0.0000       1.383256        37.6403 
  68   0.0000       1.470166        40.0053 
  69   0.0000       1.706430        46.4343 
  70   0.0000       1.706430        46.4343 
  71   0.0000       1.708250        46.4838 
  72   0.0000       1.708702        46.4961 
  73   0.0000       1.723988        46.9121 
  74   0.0000       1.723988        46.9121 
  75   0.0000       1.737964        47.2924 
  76   0.0000       2.087711        56.8095 
  77   0.0000       2.089434        56.8564 
  78   0.0000       2.096950        57.0609 
  79   0.0000       2.096950        57.0609 
  80   0.0000       2.104530        57.2672 
  81   0.0000       2.105927        57.3052 
  82   0.0000       2.132843        58.0376 
  83   0.0000       2.207763        60.0763 
  84   0.0000       2.207763        60.0763 
  85   0.0000       2.259217        61.4764 
  86   0.0000       2.278965        62.0138 
  87   0.0000       2.278965        62.0138 
  88   0.0000       2.487823        67.6971 
  89   0.0000       2.616389        71.1956 
  90   0.0000       2.621513        71.3350 
  91   0.0000       2.694438        73.3194 
  92   0.0000       2.694438        73.3194 
  93   0.0000       2.802912        76.2711 
  94   0.0000       2.802912        76.2711 
  95   0.0000       2.930946        79.7551 
  96   0.0000       2.936243        79.8992 
  97   0.0000       2.937764        79.9406 
  98   0.0000       3.203688        87.1768 
  99   0.0000       3.203753        87.1786 
 100   0.0000       3.234441        88.0136 
 101   0.0000       3.234441        88.0136 
 102   0.0000       3.504603        95.3651 
 103   0.0000       3.504603        95.3651 
 104   0.0000       3.553751        96.7025 
 105   0.0000       3.882877       105.6584 
 106   0.0000       4.850356       131.9849 
 107   0.0000       4.850356       131.9849 
 108   0.0000       5.202044       141.5548 
 109   0.0000       6.020973       163.8390 
 110   0.0000       6.021093       163.8423 
 111   0.0000       6.025552       163.9636 
 112   0.0000       6.025552       163.9636 
 113   0.0000       6.110237       166.2680 
 114   0.0000       6.110237       166.2680 
 115   0.0000       6.242548       169.8684 
 116   0.0000       6.546625       178.1427 
 117   0.0000       6.546625       178.1427 
 118   0.0000       6.548727       178.1999 
 119   0.0000       6.549108       178.2103 
 120   0.0000       6.599156       179.5722 
 121   0.0000       6.600331       179.6041 
 122   0.0000       6.774260       184.3370 
 123   0.0000       6.774260       184.3370 
 124   0.0000       6.868246       186.8945 
 125   0.0000       7.518023       204.5758 
 126   0.0000       8.400324       228.5844 
 127   0.0000       8.400324       228.5844 
 128   0.0000       8.456398       230.1103 
 129   0.0000       8.489969       231.0238 
 130   0.0000       8.734983       237.6910 
 131   0.0000       8.734983       237.6910 
 132   0.0000       8.738748       237.7934 
 133   0.0000       8.762934       238.4515 
 134   0.0000       8.763524       238.4676 
 135   0.0000       8.886198       241.8057 
 136   0.0000       8.886198       241.8057 
 137   0.0000       9.032164       245.7777 
 138   0.0000      12.690142       345.3163 

                 SPIN DOWN ORBITALS
  NO   OCC          E(Eh)            E(eV) 
   0   1.0000    -214.936255     -5848.7128 
   1   1.0000     -24.312859      -661.5865 
   2   1.0000     -24.283674      -660.7924 
   3   1.0000     -20.600237      -560.5610 
   4   1.0000     -20.592534      -560.3513 
   5   1.0000     -20.592534      -560.3513 
   6   1.0000      -2.642641       -71.9099 
   7   1.0000      -1.626713       -44.2651 
   8   1.0000      -1.608541       -43.7706 
   9   1.0000      -1.608541       -43.7706 
  10   1.0000      -0.974883       -26.5279 
  11   1.0000      -0.303185        -8.2501 
  12   1.0000      -0.268991        -7.3196 
  13   1.0000      -0.268991        -7.3196 
  14   0.0000      -0.098410        -2.6779 
  15   0.0000      -0.052549        -1.4299 
  16   0.0000      -0.047008        -1.2792 
  17   0.0000      -0.046957        -1.2778 
  18   0.0000      -0.045742        -1.2447 
  19   0.0000      -0.045742        -1.2447 
  20   0.0000       0.003645         0.0992 
  21   0.0000       0.003645         0.0992 
  22   0.0000       0.015735         0.4282 
  23   0.0000       0.019156         0.5213 
  24   0.0000       0.043248         1.1768 
  25   0.0000       0.043248         1.1768 
  26   0.0000       0.064019         1.7421 
  27   0.0000       0.065017         1.7692 
  28   0.0000       0.065017         1.7692 
  29   0.0000       0.066589         1.8120 
  30   0.0000       0.066644         1.8135 
  31   0.0000       0.074407         2.0247 
  32   0.0000       0.137276         3.7355 
  33   0.0000       0.174501         4.7484 
  34   0.0000       0.174501         4.7484 
  35   0.0000       0.197841         5.3835 
  36   0.0000       0.233927         6.3655 
  37   0.0000       0.233968         6.3666 
  38   0.0000       0.234552         6.3825 
  39   0.0000       0.234552         6.3825 
  40   0.0000       0.235989         6.4216 
  41   0.0000       0.248727         6.7682 
  42   0.0000       0.248727         6.7682 
  43   0.0000       0.281048         7.6477 
  44   0.0000       0.437573        11.9070 
  45   0.0000       0.530045        14.4233 
  46   0.0000       0.530519        14.4362 
  47   0.0000       0.546956        14.8834 
  48   0.0000       0.546956        14.8834 
  49   0.0000       0.620929        16.8963 
  50   0.0000       0.620929        16.8963 
  51   0.0000       0.638065        17.3626 
  52   0.0000       0.638065        17.3626 
  53   0.0000       0.651547        17.7295 
  54   0.0000       0.672062        18.2877 
  55   0.0000       0.803679        21.8692 
  56   0.0000       0.803679        21.8692 
  57   0.0000       0.830159        22.5898 
  58   0.0000       0.830257        22.5924 
  59   0.0000       0.886044        24.1105 
  60   0.0000       0.887144        24.1404 
  61   0.0000       0.903499        24.5855 
  62   0.0000       0.989110        26.9150 
  63   0.0000       0.989110        26.9150 
  64   0.0000       0.994705        27.0673 
  65   0.0000       1.276013        34.7221 
  66   0.0000       1.276013        34.7221 
  67   0.0000       1.388464        37.7820 
  68   0.0000       1.553379        42.2696 
  69   0.0000       1.798915        48.9510 
  70   0.0000       1.798915        48.9510 
  71   0.0000       1.803473        49.0750 
  72   0.0000       1.814165        49.3659 
  73   0.0000       1.814165        49.3659 
  74   0.0000       1.814411        49.3726 
  75   0.0000       1.814496        49.3750 
  76   0.0000       2.141064        58.2613 
  77   0.0000       2.143019        58.3145 
  78   0.0000       2.175482        59.1979 
  79   0.0000       2.175482        59.1979 
  80   0.0000       2.180482        59.3339 
  81   0.0000       2.180831        59.3434 
  82   0.0000       2.189778        59.5869 
  83   0.0000       2.286365        62.2151 
  84   0.0000       2.286365        62.2151 
  85   0.0000       2.303142        62.6717 
  86   0.0000       2.354699        64.0746 
  87   0.0000       2.354699        64.0746 
  88   0.0000       2.535064        68.9826 
  89   0.0000       2.619078        71.2687 
  90   0.0000       2.624912        71.4275 
  91   0.0000       2.698022        73.4169 
  92   0.0000       2.698022        73.4169 
  93   0.0000       2.810714        76.4834 
  94   0.0000       2.810714        76.4834 
  95   0.0000       2.950400        80.2845 
  96   0.0000       2.957298        80.4722 
  97   0.0000       2.970379        80.8281 
  98   0.0000       3.330290        90.6218 
  99   0.0000       3.330290        90.6218 
 100   0.0000       3.334320        90.7315 
 101   0.0000       3.334372        90.7329 
 102   0.0000       3.565055        97.0101 
 103   0.0000       3.565055        97.0101 
 104   0.0000       3.586778        97.6012 
 105   0.0000       3.964981       107.8926 
 106   0.0000       4.851830       132.0250 
 107   0.0000       4.851830       132.0250 
 108   0.0000       5.202071       141.5555 
 109   0.0000       6.205423       168.8582 
 110   0.0000       6.205423       168.8582 
 111   0.0000       6.214589       169.1076 
 112   0.0000       6.214596       169.1078 
 113   0.0000       6.280017       170.8880 
 114   0.0000       6.280017       170.8880 
 115   0.0000       6.394334       173.9987 
 116   0.0000       6.672886       181.5785 
 117   0.0000       6.673050       181.5829 
 118   0.0000       6.676420       181.6746 
 119   0.0000       6.676420       181.6746 
 120   0.0000       6.719763       182.8540 
 121   0.0000       6.720778       182.8817 
 122   0.0000       6.884151       187.3273 
 123   0.0000       6.884151       187.3273 
 124   0.0000       6.971631       189.7077 
 125   0.0000       7.660934       208.4646 
 126   0.0000       8.400374       228.5858 
 127   0.0000       8.400374       228.5858 
 128   0.0000       8.455396       230.0830 
 129   0.0000       8.488760       230.9909 
 130   0.0000       8.735157       237.6957 
 131   0.0000       8.735157       237.6957 
 132   0.0000       8.744148       237.9404 
 133   0.0000       8.764578       238.4963 
 134   0.0000       8.765106       238.5107 
 135   0.0000       8.881674       241.6826 
 136   0.0000       8.881674       241.6826 
 137   0.0000       9.028665       245.6825 
 138   0.0000      12.696179       345.4806 

                    ********************************
                    * MULLIKEN POPULATION ANALYSIS *
                    ********************************

--------------------------------------------
MULLIKEN ATOMIC CHARGES AND SPIN POPULATIONS
--------------------------------------------
   0 Cr:    0.582874    5.082935
   1 F :   -0.582874   -0.082935
Sum of atomic charges         :   -0.0000000
Sum of atomic spin populations:    5.0000000

-----------------------------------------------------
MULLIKEN REDUCED ORBITAL CHARGES AND SPIN POPULATIONS
-----------------------------------------------------
CHARGE
  0 Crs       :     6.636598  s :     6.636598
      pz      :     4.028392  p :    12.100802
      px      :     4.036205
      py      :     4.036205
      dz2     :     0.633325  d :     4.664713
      dxz     :     1.016183
      dyz     :     1.016183
      dx2y2   :     0.999507
      dxy     :     0.999515
      f0      :     0.004224  f :     0.012156
      f+1     :     0.003661
      f-1     :     0.003661
      f+2     :     0.000307
      f-2     :     0.000304
      f+3     :     0.000000
      f-3     :     0.000000
      g0      :     0.001499  g :     0.002858
      g+1     :     0.000679
      g-1     :     0.000679
      g+2     :     0.000000
      g-2     :     0.000000
      g+3     :     0.000000
      g-3     :     0.000000
      g+4     :     0.000000
      g-4     :     0.000000
  1 F s       :     3.974949  s :     3.974949
      pz      :     1.718110  p :     5.599421
      px      :     1.940656
      py      :     1.940656
      dz2     :     0.002597  d :     0.007650
      dxz     :     0.002370
      dyz     :     0.002370
      dx2y2   :     0.000159
      dxy     :     0.000155
      f0      :     0.000306  f :     0.000853
      f+1     :     0.000246
      f-1     :     0.000246
      f+2     :     0.000027
      f-2     :     0.000026
      f+3     :     0.000001
      f-3     :     0.000001

SPIN
  0 Crs       :     0.575201  s :     0.575201
      pz      :     0.008551  p :     0.054631
      px      :     0.023040
      py      :     0.023040
      dz2     :     0.525669  d :     4.450584
      dxz     :     0.962947
      dyz     :     0.962947
      dx2y2   :     0.999507
      dxy     :     0.999515
      f0      :    -0.000037  f :     0.003023
      f+1     :     0.001225
      f-1     :     0.001225
      f+2     :     0.000307
      f-2     :     0.000304
      f+3     :     0.000000
      f-3     :     0.000000
      g0      :    -0.000500  g :    -0.000504
      g+1     :    -0.000003
      g-1     :    -0.000003
      g+2     :     0.000000
      g-2     :     0.000000
      g+3     :     0.000000
      g-3     :     0.000000
      g+4     :     0.000000
      g-4     :     0.000000
  1 F s       :    -0.014933  s :    -0.014933
      pz      :    -0.094132  p :    -0.068630
      px      :     0.012751
      py      :     0.012751
      dz2     :     0.000189  d :     0.000452
      dxz     :    -0.000026
      dyz     :    -0.000026
      dx2y2   :     0.000159
      dxy     :     0.000155
      f0      :    -0.000009  f :     0.000177
      f+1     :     0.000066
      f-1     :     0.000066
      f+2     :     0.000027
      f-2     :     0.000026
      f+3     :    -0.000000
      f-3     :    -0.000000


                     *******************************
                     * LOEWDIN POPULATION ANALYSIS *
                     *******************************

-------------------------------------------
LOEWDIN ATOMIC CHARGES AND SPIN POPULATIONS
-------------------------------------------
   0 Cr:    0.398160    4.951723
   1 F :   -0.398160    0.048277

----------------------------------------------------
LOEWDIN REDUCED ORBITAL CHARGES AND SPIN POPULATIONS
----------------------------------------------------
CHARGE
  0 Crs       :     6.494917  s :     6.494917
      pz      :     4.062198  p :    12.160532
      px      :     4.049167
      py      :     4.049167
      dz2     :     0.710350  d :     4.743879
      dxz     :     1.018891
      dyz     :     1.018891
      dx2y2   :     0.997870
      dxy     :     0.997877
      f0      :     0.079101  f :     0.177080
      f+1     :     0.048549
      f-1     :     0.048549
      f+2     :     0.000442
      f-2     :     0.000438
      f+3     :     0.000000
      f-3     :     0.000000
      g0      :     0.012610  g :     0.025433
      g+1     :     0.006404
      g-1     :     0.006404
      g+2     :     0.000008
      g-2     :     0.000008
      g+3     :     0.000000
      g-3     :     0.000000
      g+4     :     0.000000
      g-4     :     0.000000
  1 F s       :     3.755686  s :     3.755686
      pz      :     1.818976  p :     5.519222
      px      :     1.850123
      py      :     1.850123
      dz2     :     0.059864  d :     0.109364
      dxz     :     0.023396
      dyz     :     0.023396
      dx2y2   :     0.001355
      dxy     :     0.001353
      f0      :     0.006297  f :     0.013887
      f+1     :     0.003468
      f-1     :     0.003468
      f+2     :     0.000326
      f-2     :     0.000325
      f+3     :     0.000001
      f-3     :     0.000001

SPIN
  0 Crs       :     0.504744  s :     0.504744
      pz      :     0.007748  p :     0.069224
      px      :     0.030738
      py      :     0.030738
      dz2     :     0.511008  d :     4.367383
      dxz     :     0.930314
      dyz     :     0.930314
      dx2y2   :     0.997870
      dxy     :     0.997877
      f0      :    -0.000146  f :     0.010031
      f+1     :     0.004649
      f-1     :     0.004649
      f+2     :     0.000442
      f-2     :     0.000438
      f+3     :     0.000000
      f-3     :     0.000000
      g0      :    -0.000906  g :     0.000340
      g+1     :     0.000615
      g-1     :     0.000615
      g+2     :     0.000008
      g-2     :     0.000008
      g+3     :     0.000000
      g-3     :     0.000000
      g+4     :     0.000000
      g-4     :     0.000000
  1 F s       :     0.008919  s :     0.008919
      pz      :    -0.033049  p :    -0.003995
      px      :     0.014527
      py      :     0.014527
      dz2     :     0.000849  d :     0.036202
      dxz     :     0.016323
      dyz     :     0.016323
      dx2y2   :     0.001355
      dxy     :     0.001353
      f0      :     0.000834  f :     0.007151
      f+1     :     0.002833
      f-1     :     0.002833
      f+2     :     0.000326
      f-2     :     0.000325
      f+3     :    -0.000000
      f-3     :    -0.000000


                      *****************************
                      * MAYER POPULATION ANALYSIS *
                      *****************************

  NA   - Mulliken gross atomic population
  ZA   - Total nuclear charge
  QA   - Mulliken gross atomic charge
  VA   - Mayer's total valence
  BVA  - Mayer's bonded valence
  FA   - Mayer's free valence

  ATOM       NA         ZA         QA         VA         BVA        FA
  0 Cr    23.4171    24.0000     0.5829     5.6207     0.6498     4.9709
  1 F      9.5829     9.0000    -0.5829     0.6549     0.6498     0.0051

  Mayer bond orders larger than 0.100000
B(  0-Cr,  1-F ) :   0.6498 

-------
TIMINGS
-------

Total SCF time: 0 days 0 hours 0 min 4 sec 

Total time                  ....       4.056 sec
Sum of individual times     ....       3.902 sec  ( 96.2%)

Fock matrix formation       ....       3.460 sec  ( 85.3%)
  Split-RI-J                ....       2.892 sec  ( 83.6% of F)
  XC integration            ....       0.434 sec  ( 12.5% of F)
    Basis function eval.    ....       0.053 sec  ( 12.1% of XC)
    Density eval.           ....       0.062 sec  ( 14.3% of XC)
    XC-Functional eval.     ....       0.015 sec  (  3.4% of XC)
    XC-Potential eval.      ....       0.171 sec  ( 39.4% of XC)
Diagonalization             ....       0.125 sec  (  3.1%)
Density matrix formation    ....       0.016 sec  (  0.4%)
Population analysis         ....       0.007 sec  (  0.2%)
Initial guess               ....       0.122 sec  (  3.0%)
Orbital Transformation      ....       0.000 sec  (  0.0%)
Orbital Orthonormalization  ....       0.000 sec  (  0.0%)
DIIS solution               ....       0.041 sec  (  1.0%)
Grid generation             ....       0.131 sec  (  3.2%)


-------------------------------------------------------------------------------
                          DFT DISPERSION CORRECTION                            
                                                                               
                              DFTD3 V3.1  Rev 1                                
                          USING Becke-Johnson damping                          
-------------------------------------------------------------------------------
The TPSS functional is recognized
Active option DFTDOPT                   ...         4   

molecular C6(AA) [au] = 528.412083 


            DFT-D V3
 parameters
 s6 scaling factor         :     1.0000 
 a1 scaling factor         :     0.4535 
 s8 scaling factor         :     1.9435 
 a2 scaling factor         :     4.4752 
 ad hoc parameters k1-k3   :    16.0000     1.3333    -4.0000 

 Edisp/kcal,au: -0.405566900978  -0.000646311928 
 E6   /kcal   :  -0.165164730 
 E8   /kcal   :  -0.240402171 
 % E8         :  59.275589371 

-------------------------   ----------------
Dispersion correction           -0.000646312
-------------------------   ----------------


-------------------------   --------------------
FINAL SINGLE POINT ENERGY     -1144.431347449035
-------------------------   --------------------



           ************************************************************
           *        Program running with 24 parallel MPI-processes    *
           *              working on a common directory               *
           ************************************************************
------------------------------------------------------------------------------
                         ORCA SCF GRADIENT CALCULATION
------------------------------------------------------------------------------

Gradient of the Kohn-Sham DFT energy:
Kohn-Sham wavefunction type      ... UKS
Hartree-Fock exchange scaling    ...    0.000
Number of operators              ...    2
Number of atoms                  ...    2
Basis set dimensions             ...  139
Integral neglect threshold       ... 2.5e-11
Integral primitive cutoff        ... 2.5e-12

Nuclear repulsion gradient       ... done
One Electron Gradient            ... done
Pre-screening matrix             ... done
RI-J gradient                    ... done
Exchange-correlation gradient    ... done
Dispersion correction            ... done

------------------
CARTESIAN GRADIENT
------------------

   1   Cr  :    0.000000002    0.000000002   -0.050281592
   2   F   :   -0.000000001    0.000000000    0.050625447

Difference to translation invariance:
           :    0.0000000017    0.0000000022    0.0003438552

Norm of the cartesian gradient     ...    0.0713524657
RMS gradient                       ...    0.0291295222
MAX gradient                       ...    0.0506254470

-------
TIMINGS
-------

Total SCF gradient time            ...        4.199 sec

One electron gradient       ....       0.065 sec  (  1.6%)
Prescreening matrices       ....       3.360 sec  ( 80.0%)
RI-J Coulomb gradient       ....       0.225 sec  (  5.4%)
XC gradient                 ....       0.043 sec  (  1.0%)
------------------------------------------------------------------------------
                         ORCA GEOMETRY RELAXATION STEP
------------------------------------------------------------------------------

Reading the OPT-File                    .... done
Getting information on internals        .... done
Copying old internal coords+grads       .... done
Making the new internal coordinates     .... (new redundants).... done
Validating the new internal coordinates .... (new redundants).... done
Calculating the B-matrix                .... done
Calculating the G,G- and P matrices     .... done
Transforming gradient to internals      .... done
Projecting the internal gradient        .... done
Number of atoms                         ....   2
Number of internal coordinates          ....   1
Current Energy                          .... -1144.431347449 Eh
Current gradient norm                   ....     0.071352466 Eh/bohr
Maximum allowed component of the step   ....  0.300
Current trust radius                    ....  0.300
Evaluating the initial hessian          ....  (Almloef) done
Projecting the Hessian                  .... done
Forming the augmented Hessian           .... done
Diagonalizing the augmented Hessian     .... done
Last element of RFO vector              ....  0.996024151
Lowest eigenvalues of augmented Hessian:
 -0.004512523
Length of the computed step             ....  0.089439209
The final length of the internal step   ....  0.089439209
Converting the step to cartesian space:
 Initial RMS(Int)=    0.0894392087
Transforming coordinates:
 Iter   0:  RMS(Cart)=    0.0258188756 RMS(Int)=    0.0894392087
 Iter   1:  RMS(Cart)=    0.0000000000 RMS(Int)=    0.0000000000
done
Storing new coordinates                 .... done

                                .--------------------.
          ----------------------|Geometry convergence|-------------------------
          Item                value                   Tolerance       Converged
          ---------------------------------------------------------------------
          RMS gradient        0.0504535194            0.0001000000      NO
          MAX gradient        0.0504535194            0.0003000000      NO
          RMS step            0.0894392087            0.0020000000      NO
          MAX step            0.0894392087            0.0040000000      NO
          ........................................................
          Max(Bonds)      0.0473      Max(Angles)    0.00
          Max(Dihed)        0.00      Max(Improp)    0.00
          ---------------------------------------------------------------------

The optimization has not yet converged - more geometry cycles are needed


    ---------------------------------------------------------------------------
                         Redundant Internal Coordinates
                            (Angstroem and degrees)

        Definition                    Value    dE/dq     Step     New-Value
    ----------------------------------------------------------------------------
     1. B(F   1,Cr  0)                2.0000  0.050454 -0.0473    1.9527   
    ----------------------------------------------------------------------------

         *************************************************************
         *                GEOMETRY OPTIMIZATION CYCLE   2            *
         *************************************************************
---------------------------------
CARTESIAN COORDINATES (ANGSTROEM)
---------------------------------
  Cr     0.000000    0.000000    0.023665
  F      0.000000    0.000000    1.976335

----------------------------
CARTESIAN COORDINATES (A.U.)
----------------------------
  NO LB      ZA    FRAG     MASS         X           Y           Z
   0 Cr   24.0000    0    52.000    0.000000    0.000000    0.044720
   1 F     9.0000    0    18.998    0.000000    0.000000    3.734733

--------------------------------
INTERNAL COORDINATES (ANGSTROEM)
--------------------------------
 Cr     0   0   0     0.000000000000     0.00000000     0.00000000
 F      1   0   0     1.952670809215     0.00000000     0.00000000

---------------------------
INTERNAL COORDINATES (A.U.)
---------------------------
 Cr     0   0   0     0.000000000000     0.00000000     0.00000000
 F      1   0   0     3.690013059119     0.00000000     0.00000000



           ************************************************************
           *        Program running with 24 parallel MPI-processes    *
           *              working on a common directory               *
           ************************************************************
 One Electron integrals                  ... done
 Pre-screening matrix                    ... done


           ************************************************************
           *        Program running with 24 parallel MPI-processes    *
           *              working on a common directory               *
           ************************************************************

Diagonalization of the overlap matrix:
Smallest eigenvalue                        ... 9.139e-05
Time for diagonalization                   ...    0.005 sec
Threshold for overlap eigenvalues          ... 1.000e-08
Number of eigenvalues below threshold      ... 0
Time for construction of square roots      ...    0.002 sec
Total time needed                          ...    0.007 sec

-------------------
DFT GRID GENERATION
-------------------

General Integration Accuracy     IntAcc      ...  4.340
Radial Grid Type                 RadialGrid  ... Gauss-Chebyshev
Angular Grid (max. acc.)         AngularGrid ... Lebedev-110
Angular grid pruning method      GridPruning ... 3 (G Style)
Weight generation scheme         WeightScheme... Becke
Basis function cutoff            BFCut       ...    1.0000e-11
Integration weight cutoff        WCut        ...    1.0000e-14
Grids for H and He will be reduced by one unit

# of grid points (after initial pruning)     ...   4712 (   0.0 sec)
# of grid points (after weights+screening)   ...   4687 (   0.0 sec)
nearest neighbour list constructed           ...    0.0 sec
Grid point re-assignment to atoms done       ...    0.0 sec
Grid point division into batches done        ...    0.0 sec
Reduced shell lists constructed in    0.0 sec

Total number of grid points                  ...     4687
Total number of batches                      ...       74
Average number of points per batch           ...       63
Average number of grid points per atom       ...     2344
Average number of shells per batch           ...    21.60 (55.38%)
Average number of basis functions per batch  ...    66.40 (47.77%)
Average number of large shells per batch     ...    15.20 (70.37%)
Average number of large basis fcns per batch ...    44.00 (66.27%)
Maximum spatial batch extension              ...  18.98, 28.73, 16.15 au
Average spatial batch extension              ...   0.94,  1.30,  0.87 au

Time for grid setup =    0.023 sec

--------------
SCF ITERATIONS
--------------
ITER       Energy         Delta-E        Max-DP      RMS-DP      [F,P]     Damp
               ***  Starting incremental Fock matrix formation  ***
  0  -1144.4363662424   0.000000000000 0.00396217  0.00006019  0.0046078 0.7000
  1  -1144.4364163955  -0.000050153100 0.00464561  0.00006388  0.0029092 0.7000
                               ***Turning on DIIS***
  2  -1144.4364536848  -0.000037289339 0.01396071  0.00019069  0.0019872 0.0000
  3  -1144.4365479094  -0.000094224526 0.00506726  0.00004865  0.0008105 0.0000
  4  -1144.4365555855  -0.000007676152 0.00372912  0.00003777  0.0005043 0.0000
  5  -1144.4365528157   0.000002769797 0.00059290  0.00001160  0.0012322 0.0000
  6  -1144.4365552409  -0.000002425223 0.00165312  0.00001160  0.0006535 0.0000
  7  -1144.4365565835  -0.000001342570 0.00048771  0.00000353  0.0000455 0.0000
  8  -1144.4365568280  -0.000000244505 0.00005816  0.00000095  0.0001072 0.0000
  9  -1144.4365568547  -0.000000026719 0.00002863  0.00000043  0.0000575 0.0000
 10  -1144.4365568695  -0.000000014722 0.00001628  0.00000025  0.0000227 0.0000
 11  -1144.4365568700  -0.000000000542 0.00000375  0.00000005  0.0000044 0.0000
                            ***DIIS convergence achieved***

               *****************************************************
               *                     SUCCESS                       *
               *           SCF CONVERGED AFTER  12 CYCLES          *
               *****************************************************

Setting up the final grid:

General Integration Accuracy     IntAcc      ...  4.670
Radial Grid Type                 RadialGrid  ... Gauss-Chebyshev
Angular Grid (max. acc.)         AngularGrid ... Lebedev-302
Angular grid pruning method      GridPruning ... 3 (G Style)
Weight generation scheme         WeightScheme... Becke
Basis function cutoff            BFCut       ...    1.0000e-11
Integration weight cutoff        WCut        ...    1.0000e-14
Grids for H and He will be reduced by one unit

# of grid points (after initial pruning)     ...  15936 (   0.0 sec)
# of grid points (after weights+screening)   ...  15893 (   0.0 sec)
nearest neighbour list constructed           ...    0.0 sec
Grid point re-assignment to atoms done       ...    0.0 sec
Grid point division into batches done        ...    0.1 sec
Reduced shell lists constructed in    0.1 sec

Total number of grid points                  ...    15893
Total number of batches                      ...      249
Average number of points per batch           ...       63
Average number of grid points per atom       ...     7946
Average number of shells per batch           ...    16.50 (42.31%)
Average number of basis functions per batch  ...    44.33 (31.89%)
Average number of large shells per batch     ...     9.83 (59.60%)
Average number of large basis fcns per batch ...    27.83 (62.78%)
Maximum spatial batch extension              ...  28.57, 31.41, 16.70 au
Average spatial batch extension              ...   0.89,  0.95,  0.67 au

Final grid set up in    0.1 sec
Final integration                            ... done (   0.0 sec)
Change in XC energy                          ...     0.001604388
Integrated number of electrons               ...    32.999993970
Previous integrated no of electrons          ...    32.999741537
Total Energy       :        -1144.43495247 Eh          -31141.65827 eV
  Last Energy change         ...    9.4813e-09  Tolerance :   1.0000e-08
  Last MAX-Density change    ...    1.4130e-06  Tolerance :   1.0000e-07
             **** THE GBW FILE WAS UPDATED (20_CrF.gbw) ****
             **** DENSITY FILE WAS UPDATED (20_CrF.scfp) ****
             **** ENERGY FILE WAS UPDATED (20_CrF.en.tmp) ****
----------------------
UHF SPIN CONTAMINATION
----------------------

Warning: in a DFT calculation there is little theoretical justification to 
         calculate <S**2> as in Hartree-Fock theory. We will do it anyways
         but you should keep in mind that the values have only limited relevance

Expectation value of <S**2>     :     8.765608
Ideal value S*(S+1) for S=2.5   :     8.750000
Deviation                       :     0.015608

             **** THE GBW FILE WAS UPDATED (20_CrF.gbw) ****
             **** DENSITY FILE WAS UPDATED (20_CrF.scfp) ****
Total SCF time: 0 days 0 hours 0 min 2 sec 


-------------------------------------------------------------------------------
                          DFT DISPERSION CORRECTION                            
                                                                               
                              DFTD3 V3.1  Rev 1                                
                          USING Becke-Johnson damping                          
-------------------------------------------------------------------------------
-------------------------   ----------------
Dispersion correction           -0.000631359
-------------------------   ----------------


-------------------------   --------------------
FINAL SINGLE POINT ENERGY     -1144.435583831403
-------------------------   --------------------



           ************************************************************
           *        Program running with 24 parallel MPI-processes    *
           *              working on a common directory               *
           ************************************************************
------------------------------------------------------------------------------
                         ORCA SCF GRADIENT CALCULATION
------------------------------------------------------------------------------

Gradient of the Kohn-Sham DFT energy:
Kohn-Sham wavefunction type      ... UKS
Hartree-Fock exchange scaling    ...    0.000
Number of operators              ...    2
Number of atoms                  ...    2
Basis set dimensions             ...  139
Integral neglect threshold       ... 2.5e-11
Integral primitive cutoff        ... 2.5e-12

Nuclear repulsion gradient       ... done
One Electron Gradient            ... done
Pre-screening matrix             ... done
RI-J gradient                    ... done
Exchange-correlation gradient    ... done
Dispersion correction            ... done

------------------
CARTESIAN GRADIENT
------------------

   1   Cr  :   -0.000000002    0.000000001   -0.044210244
   2   F   :    0.000000001   -0.000000002    0.044715396

Difference to translation invariance:
           :   -0.0000000006   -0.0000000007    0.0005051520

Norm of the cartesian gradient     ...    0.0628809375
RMS gradient                       ...    0.0256710352
MAX gradient                       ...    0.0447153959

-------
TIMINGS
-------

Total SCF gradient time            ...        4.223 sec

One electron gradient       ....       0.058 sec  (  1.4%)
Prescreening matrices       ....       3.379 sec  ( 80.0%)
RI-J Coulomb gradient       ....       0.230 sec  (  5.4%)
XC gradient                 ....       0.045 sec  (  1.1%)
------------------------------------------------------------------------------
                         ORCA GEOMETRY RELAXATION STEP
------------------------------------------------------------------------------

Reading the OPT-File                    .... done
Getting information on internals        .... done
Copying old internal coords+grads       .... done
Making the new internal coordinates     .... (new redundants).... done
Validating the new internal coordinates .... (new redundants).... done
Calculating the B-matrix                .... done
Calculating the G,G- and P matrices     .... done
Transforming gradient to internals      .... done
Projecting the internal gradient        .... done
Number of atoms                         ....   2
Number of internal coordinates          ....   1
Current Energy                          .... -1144.435583831 Eh
Current gradient norm                   ....     0.062880937 Eh/bohr
Maximum allowed component of the step   ....  0.300
Current trust radius                    ....  0.300
Updating the Hessian (BFGS)             .... done
Forming the augmented Hessian           .... done
Diagonalizing the augmented Hessian     .... done
Last element of RFO vector              ....  0.894886999
Lowest eigenvalues of augmented Hessian:
 -0.022174237
Length of the computed step             ....  0.498714135
Warning: the length of the step is outside the trust region - taking restricted step instead
The input lambda is                     ....    -0.022174
   iter:   1  x=   -0.050621  g=    5.579407 f(x)=     0.158716
   iter:   2  x=   -0.072400  g=    2.430994 f(x)=     0.052944
   iter:   3  x=   -0.080455  g=    1.460217 f(x)=     0.011763
   iter:   4  x=   -0.081223  g=    1.233707 f(x)=     0.000946
   iter:   5  x=   -0.081229  g=    1.214646 f(x)=     0.000007
   iter:   6  x=   -0.081229  g=    1.214498 f(x)=     0.000000
   iter:   7  x=   -0.081229  g=    1.214498 f(x)=     0.000000
The output lambda is                    ....    -0.081229 (7 iterations)
The final length of the internal step   ....  0.300000000
Converting the step to cartesian space:
 Initial RMS(Int)=    0.3000000000
Transforming coordinates:
 Iter   0:  RMS(Cart)=    0.0866025404 RMS(Int)=    0.3000000000
 Iter   1:  RMS(Cart)=    0.0000000000 RMS(Int)=    0.0000000000
done
Storing new coordinates                 .... done

                                .--------------------.
          ----------------------|Geometry convergence|-------------------------
          Item                value                   Tolerance       Converged
          ---------------------------------------------------------------------
          Energy change      -0.0042363824            0.0000050000      NO
          RMS gradient        0.0444628199            0.0001000000      NO
          MAX gradient        0.0444628199            0.0003000000      NO
          RMS step            0.3000000000            0.0020000000      NO
          MAX step            0.3000000000            0.0040000000      NO
          ........................................................
          Max(Bonds)      0.1588      Max(Angles)    0.00
          Max(Dihed)        0.00      Max(Improp)    0.00
          ---------------------------------------------------------------------

The optimization has not yet converged - more geometry cycles are needed


    ---------------------------------------------------------------------------
                         Redundant Internal Coordinates
                            (Angstroem and degrees)

        Definition                    Value    dE/dq     Step     New-Value
    ----------------------------------------------------------------------------
     1. B(F   1,Cr  0)                1.9527  0.044463 -0.1588    1.7939   
    ----------------------------------------------------------------------------

         *************************************************************
         *                GEOMETRY OPTIMIZATION CYCLE   3            *
         *************************************************************
---------------------------------
CARTESIAN COORDINATES (ANGSTROEM)
---------------------------------
  Cr     0.000000    0.000000    0.103041
  F      0.000000    0.000000    1.896959

----------------------------
CARTESIAN COORDINATES (A.U.)
----------------------------
  NO LB      ZA    FRAG     MASS         X           Y           Z
   0 Cr   24.0000    0    52.000    0.000000    0.000000    0.194720
   1 F     9.0000    0    18.998    0.000000    0.000000    3.584733

--------------------------------
INTERNAL COORDINATES (ANGSTROEM)
--------------------------------
 Cr     0   0   0     0.000000000000     0.00000000     0.00000000
 F      1   0   0     1.793917646725     0.00000000     0.00000000

---------------------------
INTERNAL COORDINATES (A.U.)
---------------------------
 Cr     0   0   0     0.000000000000     0.00000000     0.00000000
 F      1   0   0     3.390013059119     0.00000000     0.00000000



           ************************************************************
           *        Program running with 24 parallel MPI-processes    *
           *              working on a common directory               *
           ************************************************************
 One Electron integrals                  ... done
 Pre-screening matrix                    ... done


           ************************************************************
           *        Program running with 24 parallel MPI-processes    *
           *              working on a common directory               *
           ************************************************************

Diagonalization of the overlap matrix:
Smallest eigenvalue                        ... 8.934e-05
Time for diagonalization                   ...    0.004 sec
Threshold for overlap eigenvalues          ... 1.000e-08
Number of eigenvalues below threshold      ... 0
Time for construction of square roots      ...    0.002 sec
Total time needed                          ...    0.006 sec

-------------------
DFT GRID GENERATION
-------------------

General Integration Accuracy     IntAcc      ...  4.340
Radial Grid Type                 RadialGrid  ... Gauss-Chebyshev
Angular Grid (max. acc.)         AngularGrid ... Lebedev-110
Angular grid pruning method      GridPruning ... 3 (G Style)
Weight generation scheme         WeightScheme... Becke
Basis function cutoff            BFCut       ...    1.0000e-11
Integration weight cutoff        WCut        ...    1.0000e-14
Grids for H and He will be reduced by one unit

# of grid points (after initial pruning)     ...   4712 (   0.0 sec)
# of grid points (after weights+screening)   ...   4687 (   0.0 sec)
nearest neighbour list constructed           ...    0.0 sec
Grid point re-assignment to atoms done       ...    0.0 sec
Grid point division into batches done        ...    0.0 sec
Reduced shell lists constructed in    0.0 sec

Total number of grid points                  ...     4687
Total number of batches                      ...       75
Average number of points per batch           ...       62
Average number of grid points per atom       ...     2344
Average number of shells per batch           ...    22.00 (56.41%)
Average number of basis functions per batch  ...    69.20 (49.78%)
Average number of large shells per batch     ...    15.60 (70.91%)
Average number of large basis fcns per batch ...    46.00 (66.47%)
Maximum spatial batch extension              ...  18.98, 28.73, 15.95 au
Average spatial batch extension              ...   0.94,  1.29,  0.85 au

Time for grid setup =    0.019 sec

--------------
SCF ITERATIONS
--------------
ITER       Energy         Delta-E        Max-DP      RMS-DP      [F,P]     Damp
               ***  Starting incremental Fock matrix formation  ***
  0  -1144.4418512301   0.000000000000 0.01274782  0.00020907  0.0168137 0.7000
  1  -1144.4426338375  -0.000782607422 0.01607001  0.00021923  0.0116065 0.7000
                               ***Turning on DIIS***
  2  -1144.4432361941  -0.000602356637 0.04957311  0.00065501  0.0086002 0.0000
  3  -1144.4447182267  -0.001482032537 0.00636794  0.00012287  0.0033784 0.0000
  4  -1144.4447642724  -0.000046045710 0.00693811  0.00014026  0.0026620 0.0000
  5  -1144.4447926029  -0.000028330472 0.00306230  0.00005855  0.0016123 0.0000
  6  -1144.4448057198  -0.000013116935 0.01157072  0.00008673  0.0007366 0.0000
  7  -1144.4448091619  -0.000003442132 0.00072284  0.00001321  0.0019800 0.0000
  8  -1144.4448160827  -0.000006920763 0.00233802  0.00001940  0.0009281 0.0000
  9  -1144.4448181396  -0.000002056938 0.00114105  0.00000856  0.0004047 0.0000
 10  -1144.4448186922  -0.000000552586 0.00012763  0.00000151  0.0001057 0.0000
 11  -1144.4448187062  -0.000000013950 0.00003309  0.00000055  0.0000389 0.0000
 12  -1144.4448187048   0.000000001393 0.00001165  0.00000019  0.0000281 0.0000
 13  -1144.4448186799   0.000000024827 0.00000799  0.00000014  0.0000080 0.0000
 14  -1144.4448186963  -0.000000016345 0.00000223  0.00000004  0.0000010 0.0000
                            ***DIIS convergence achieved***

               *****************************************************
               *                     SUCCESS                       *
               *           SCF CONVERGED AFTER  15 CYCLES          *
               *****************************************************

Setting up the final grid:

General Integration Accuracy     IntAcc      ...  4.670
Radial Grid Type                 RadialGrid  ... Gauss-Chebyshev
Angular Grid (max. acc.)         AngularGrid ... Lebedev-302
Angular grid pruning method      GridPruning ... 3 (G Style)
Weight generation scheme         WeightScheme... Becke
Basis function cutoff            BFCut       ...    1.0000e-11
Integration weight cutoff        WCut        ...    1.0000e-14
Grids for H and He will be reduced by one unit

# of grid points (after initial pruning)     ...  15936 (   0.0 sec)
# of grid points (after weights+screening)   ...  15887 (   0.0 sec)
nearest neighbour list constructed           ...    0.0 sec
Grid point re-assignment to atoms done       ...    0.0 sec
Grid point division into batches done        ...    0.1 sec
Reduced shell lists constructed in    0.1 sec

Total number of grid points                  ...    15887
Total number of batches                      ...      250
Average number of points per batch           ...       63
Average number of grid points per atom       ...     7944
Average number of shells per batch           ...    16.50 (42.31%)
Average number of basis functions per batch  ...    44.33 (31.89%)
Average number of large shells per batch     ...    10.00 (60.61%)
Average number of large basis fcns per batch ...    28.33 (63.91%)
Maximum spatial batch extension              ...  28.57, 31.41, 18.52 au
Average spatial batch extension              ...   0.88,  0.94,  0.67 au

Final grid set up in    0.1 sec
Final integration                            ... done (   0.1 sec)
Change in XC energy                          ...     0.001776508
Integrated number of electrons               ...    33.000018521
Previous integrated no of electrons          ...    33.000379046
Total Energy       :        -1144.44304217 Eh          -31141.87840 eV
  Last Energy change         ...    1.6392e-08  Tolerance :   1.0000e-08
  Last MAX-Density change    ...    2.1316e-06  Tolerance :   1.0000e-07
             **** THE GBW FILE WAS UPDATED (20_CrF.gbw) ****
             **** DENSITY FILE WAS UPDATED (20_CrF.scfp) ****
             **** ENERGY FILE WAS UPDATED (20_CrF.en.tmp) ****
----------------------
UHF SPIN CONTAMINATION
----------------------

Warning: in a DFT calculation there is little theoretical justification to 
         calculate <S**2> as in Hartree-Fock theory. We will do it anyways
         but you should keep in mind that the values have only limited relevance

Expectation value of <S**2>     :     8.761186
Ideal value S*(S+1) for S=2.5   :     8.750000
Deviation                       :     0.011186

             **** THE GBW FILE WAS UPDATED (20_CrF.gbw) ****
             **** DENSITY FILE WAS UPDATED (20_CrF.scfp) ****
Total SCF time: 0 days 0 hours 0 min 3 sec 


-------------------------------------------------------------------------------
                          DFT DISPERSION CORRECTION                            
                                                                               
                              DFTD3 V3.1  Rev 1                                
                          USING Becke-Johnson damping                          
-------------------------------------------------------------------------------
-------------------------   ----------------
Dispersion correction           -0.000612664
-------------------------   ----------------


-------------------------   --------------------
FINAL SINGLE POINT ENERGY     -1144.443654836665
-------------------------   --------------------



           ************************************************************
           *        Program running with 24 parallel MPI-processes    *
           *              working on a common directory               *
           ************************************************************
------------------------------------------------------------------------------
                         ORCA SCF GRADIENT CALCULATION
------------------------------------------------------------------------------

Gradient of the Kohn-Sham DFT energy:
Kohn-Sham wavefunction type      ... UKS
Hartree-Fock exchange scaling    ...    0.000
Number of operators              ...    2
Number of atoms                  ...    2
Basis set dimensions             ...  139
Integral neglect threshold       ... 2.5e-11
[...]
 105   0.0000       4.250901       115.6729 
 106   0.0000       4.854703       132.1032 
 107   0.0000       4.854703       132.1032 
 108   0.0000       5.236546       142.4937 
 109   0.0000       6.032238       164.1455 
 110   0.0000       6.032238       164.1455 
 111   0.0000       6.035227       164.2269 
 112   0.0000       6.035380       164.2310 
 113   0.0000       6.221809       169.3040 
 114   0.0000       6.221809       169.3040 
 115   0.0000       6.345823       172.6786 
 116   0.0000       6.556255       178.4048 
 117   0.0000       6.556840       178.4207 
 118   0.0000       6.557783       178.4463 
 119   0.0000       6.557783       178.4463 
 120   0.0000       6.642464       180.7506 
 121   0.0000       6.643148       180.7692 
 122   0.0000       6.804782       185.1675 
 123   0.0000       6.804782       185.1675 
 124   0.0000       6.915525       188.1810 
 125   0.0000       7.736087       210.5096 
 126   0.0000       8.376955       227.9485 
 127   0.0000       8.376955       227.9485 
 128   0.0000       8.464698       230.3361 
 129   0.0000       8.530775       232.1342 
 130   0.0000       8.738337       237.7822 
 131   0.0000       8.743392       237.9198 
 132   0.0000       8.807432       239.6624 
 133   0.0000       8.807432       239.6624 
 134   0.0000       8.826942       240.1933 
 135   0.0000       8.893149       241.9949 
 136   0.0000       8.893149       241.9949 
 137   0.0000       9.125806       248.3258 
 138   0.0000      13.084442       356.0458 

                 SPIN DOWN ORBITALS
  NO   OCC          E(Eh)            E(eV) 
   0   1.0000    -214.928358     -5848.4980 
   1   1.0000     -24.340127      -662.3285 
   2   1.0000     -24.281968      -660.7459 
   3   1.0000     -20.599751      -560.5477 
   4   1.0000     -20.589689      -560.2739 
   5   1.0000     -20.589689      -560.2739 
   6   1.0000      -2.642565       -71.9079 
   7   1.0000      -1.633686       -44.4548 
   8   1.0000      -1.606028       -43.7023 
   9   1.0000      -1.606028       -43.7023 
  10   1.0000      -1.011886       -27.5348 
  11   1.0000      -0.339679        -9.2431 
  12   1.0000      -0.307483        -8.3670 
  13   1.0000      -0.307483        -8.3670 
  14   0.0000      -0.090809        -2.4710 
  15   0.0000      -0.042564        -1.1582 
  16   0.0000      -0.042369        -1.1529 
  17   0.0000      -0.040878        -1.1123 
  18   0.0000      -0.037659        -1.0248 
  19   0.0000      -0.037659        -1.0248 
  20   0.0000       0.010074         0.2741 
  21   0.0000       0.010074         0.2741 
  22   0.0000       0.018486         0.5030 
  23   0.0000       0.020739         0.5643 
  24   0.0000       0.048881         1.3301 
  25   0.0000       0.048881         1.3301 
  26   0.0000       0.066432         1.8077 
  27   0.0000       0.066432         1.8077 
  28   0.0000       0.067356         1.8328 
  29   0.0000       0.069442         1.8896 
  30   0.0000       0.069514         1.8916 
  31   0.0000       0.077194         2.1006 
  32   0.0000       0.142333         3.8731 
  33   0.0000       0.180399         4.9089 
  34   0.0000       0.180399         4.9089 
  35   0.0000       0.209522         5.7014 
  36   0.0000       0.231098         6.2885 
  37   0.0000       0.231098         6.2885 
  38   0.0000       0.239818         6.5258 
  39   0.0000       0.240061         6.5324 
  40   0.0000       0.240869         6.5544 
  41   0.0000       0.255572         6.9545 
  42   0.0000       0.255572         6.9545 
  43   0.0000       0.290329         7.9003 
  44   0.0000       0.471861        12.8400 
  45   0.0000       0.531844        14.4722 
  46   0.0000       0.533627        14.5207 
  47   0.0000       0.555927        15.1275 
  48   0.0000       0.555927        15.1275 
  49   0.0000       0.636237        17.3129 
  50   0.0000       0.636237        17.3129 
  51   0.0000       0.647644        17.6233 
  52   0.0000       0.647644        17.6233 
  53   0.0000       0.654702        17.8154 
  54   0.0000       0.685030        18.6406 
  55   0.0000       0.825462        22.4620 
  56   0.0000       0.825462        22.4620 
  57   0.0000       0.827335        22.5129 
  58   0.0000       0.827715        22.5233 
  59   0.0000       0.885007        24.0823 
  60   0.0000       0.912803        24.8386 
  61   0.0000       0.913799        24.8657 
  62   0.0000       0.969050        26.3692 
  63   0.0000       0.969050        26.3692 
  64   0.0000       1.111619        30.2487 
  65   0.0000       1.314135        35.7594 
  66   0.0000       1.347492        36.6671 
  67   0.0000       1.347492        36.6671 
  68   0.0000       1.646770        44.8109 
  69   0.0000       1.797295        48.9069 
  70   0.0000       1.798834        48.9488 
  71   0.0000       1.822316        49.5878 
  72   0.0000       1.822316        49.5878 
  73   0.0000       1.825590        49.6768 
  74   0.0000       1.825590        49.6768 
  75   0.0000       1.859270        50.5933 
  76   0.0000       2.158346        58.7316 
  77   0.0000       2.158346        58.7316 
  78   0.0000       2.170620        59.0656 
  79   0.0000       2.172937        59.1286 
  80   0.0000       2.188196        59.5438 
  81   0.0000       2.188861        59.5619 
  82   0.0000       2.217759        60.3483 
  83   0.0000       2.287034        62.2334 
  84   0.0000       2.287034        62.2334 
  85   0.0000       2.396049        65.1998 
  86   0.0000       2.396049        65.1998 
  87   0.0000       2.516788        68.4853 
  88   0.0000       2.539650        69.1074 
  89   0.0000       2.623497        71.3890 
  90   0.0000       2.627388        71.4949 
  91   0.0000       2.707471        73.6740 
  92   0.0000       2.707471        73.6740 
  93   0.0000       2.920379        79.4676 
  94   0.0000       2.920379        79.4676 
  95   0.0000       3.047121        82.9164 
  96   0.0000       3.094016        84.1925 
  97   0.0000       3.099548        84.3430 
  98   0.0000       3.339143        90.8627 
  99   0.0000       3.339170        90.8634 
 100   0.0000       3.454138        93.9919 
 101   0.0000       3.454138        93.9919 
 102   0.0000       3.514093        95.6233 
 103   0.0000       3.674212        99.9804 
 104   0.0000       3.674212        99.9804 
 105   0.0000       4.320769       117.5741 
 106   0.0000       4.859143       132.2240 
 107   0.0000       4.859143       132.2240 
 108   0.0000       5.259059       143.1063 
 109   0.0000       6.208043       168.9295 
 110   0.0000       6.208043       168.9295 
 111   0.0000       6.225717       169.4104 
 112   0.0000       6.225880       169.4148 
 113   0.0000       6.378950       173.5800 
 114   0.0000       6.378950       173.5800 
 115   0.0000       6.472793       176.1336 
 116   0.0000       6.677515       181.7044 
 117   0.0000       6.677886       181.7145 
 118   0.0000       6.685466       181.9208 
 119   0.0000       6.685466       181.9208 
 120   0.0000       6.759860       183.9452 
 121   0.0000       6.760513       183.9629 
 122   0.0000       6.913429       188.1240 
 123   0.0000       6.913429       188.1240 
 124   0.0000       7.015040       190.8889 
 125   0.0000       7.874927       214.2877 
 126   0.0000       8.379982       228.0309 
 127   0.0000       8.379982       228.0309 
 128   0.0000       8.466745       230.3918 
 129   0.0000       8.532605       232.1840 
 130   0.0000       8.744171       237.9410 
 131   0.0000       8.749111       238.0754 
 132   0.0000       8.810582       239.7481 
 133   0.0000       8.810582       239.7481 
 134   0.0000       8.833903       240.3827 
 135   0.0000       8.894684       242.0367 
 136   0.0000       8.894684       242.0367 
 137   0.0000       9.130872       248.4637 
 138   0.0000      13.092677       356.2698 

                    ********************************
                    * MULLIKEN POPULATION ANALYSIS *
                    ********************************

--------------------------------------------
MULLIKEN ATOMIC CHARGES AND SPIN POPULATIONS
--------------------------------------------
   0 Cr:    0.548587    5.024832
   1 F :   -0.548587   -0.024832
Sum of atomic charges         :    0.0000000
Sum of atomic spin populations:    5.0000000

-----------------------------------------------------
MULLIKEN REDUCED ORBITAL CHARGES AND SPIN POPULATIONS
-----------------------------------------------------
CHARGE
  0 Crs       :     6.695171  s :     6.695171
      pz      :     4.025116  p :    12.115382
      px      :     4.045133
      py      :     4.045133
      dz2     :     0.577879  d :     4.621535
      dxz     :     1.022544
      dyz     :     1.022544
      dx2y2   :     0.999275
      dxy     :     0.999294
      f0      :     0.005449  f :     0.014042
      f+1     :     0.004062
      f-1     :     0.004062
      f+2     :     0.000235
      f-2     :     0.000233
      f+3     :     0.000000
      f-3     :     0.000000
      g0      :     0.002102  g :     0.005283
      g+1     :     0.001590
      g-1     :     0.001590
      g+2     :     0.000001
      g-2     :     0.000001
      g+3     :    -0.000000
      g-3     :    -0.000000
      g+4     :     0.000000
      g-4     :     0.000000
  1 F s       :     3.974881  s :     3.974881
      pz      :     1.716444  p :     5.561489
      px      :     1.922522
      py      :     1.922522
      dz2     :     0.002347  d :     0.010356
      dxz     :     0.003598
      dyz     :     0.003598
      dx2y2   :     0.000412
      dxy     :     0.000399
      f0      :     0.000610  f :     0.001862
      f+1     :     0.000550
      f-1     :     0.000550
      f+2     :     0.000077
      f-2     :     0.000073
      f+3     :     0.000001
      f-3     :     0.000001

SPIN
  0 Crs       :     0.644402  s :     0.644402
      pz      :     0.014059  p :     0.077447
      px      :     0.031694
      py      :     0.031694
      dz2     :     0.418429  d :     4.300601
      dxz     :     0.941802
      dyz     :     0.941802
      dx2y2   :     0.999275
      dxy     :     0.999294
      f0      :    -0.000754  f :     0.003131
      f+1     :     0.001708
      f-1     :     0.001708
      f+2     :     0.000235
      f-2     :     0.000233
      f+3     :    -0.000000
      f-3     :    -0.000000
      g0      :    -0.000684  g :    -0.000750
      g+1     :    -0.000034
      g-1     :    -0.000034
      g+2     :     0.000001
      g-2     :     0.000001
      g+3     :    -0.000000
      g-3     :    -0.000000
      g+4     :     0.000000
      g-4     :     0.000000
  1 F s       :    -0.012953  s :    -0.012953
      pz      :    -0.062405  p :    -0.013179
      px      :     0.024613
      py      :     0.024613
      dz2     :    -0.000067  d :     0.000783
      dxz     :     0.000019
      dyz     :     0.000019
      dx2y2   :     0.000412
      dxy     :     0.000399
      f0      :    -0.000027  f :     0.000518
      f+1     :     0.000198
      f-1     :     0.000198
      f+2     :     0.000077
      f-2     :     0.000073
      f+3     :    -0.000000
      f-3     :    -0.000000


                     *******************************
                     * LOEWDIN POPULATION ANALYSIS *
                     *******************************

-------------------------------------------
LOEWDIN ATOMIC CHARGES AND SPIN POPULATIONS
-------------------------------------------
   0 Cr:    0.365036    4.862875
   1 F :   -0.365036    0.137125

----------------------------------------------------
LOEWDIN REDUCED ORBITAL CHARGES AND SPIN POPULATIONS
----------------------------------------------------
CHARGE
  0 Crs       :     6.485514  s :     6.485514
      pz      :     4.059749  p :    12.165701
      px      :     4.052976
      py      :     4.052976
      dz2     :     0.677469  d :     4.696745
      dxz     :     1.014850
      dyz     :     1.014850
      dx2y2   :     0.994781
      dxy     :     0.994794
      f0      :     0.099862  f :     0.233516
      f+1     :     0.066288
      f-1     :     0.066288
      f+2     :     0.000540
      f-2     :     0.000538
      f+3     :     0.000000
      f-3     :     0.000000
      g0      :     0.022928  g :     0.053488
      g+1     :     0.015250
      g-1     :     0.015250
      g+2     :     0.000030
      g-2     :     0.000030
      g+3     :     0.000000
      g-3     :     0.000000
      g+4     :     0.000000
      g-4     :     0.000000
  1 F s       :     3.693939  s :     3.693939
      pz      :     1.840338  p :     5.435314
      px      :     1.797488
      py      :     1.797488
      dz2     :     0.101106  d :     0.195901
      dxz     :     0.043811
      dyz     :     0.043811
      dx2y2   :     0.003591
      dxy     :     0.003583
      f0      :     0.019095  f :     0.039883
      f+1     :     0.009336
      f-1     :     0.009336
      f+2     :     0.001058
      f-2     :     0.001055
      f+3     :     0.000001
      f-3     :     0.000001

SPIN
  0 Crs       :     0.571751  s :     0.571751
      pz      :     0.015351  p :     0.109715
      px      :     0.047182
      py      :     0.047182
      dz2     :     0.399742  d :     4.162820
      dxz     :     0.886751
      dyz     :     0.886751
      dx2y2   :     0.994781
      dxy     :     0.994794
      f0      :    -0.000488  f :     0.016774
      f+1     :     0.008092
      f-1     :     0.008092
      f+2     :     0.000540
      f-2     :     0.000538
      f+3     :    -0.000000
      f-3     :    -0.000000
      g0      :    -0.001117  g :     0.001816
      g+1     :     0.001437
      g-1     :     0.001437
      g+2     :     0.000030
      g-2     :     0.000030
      g+3     :    -0.000000
      g-3     :    -0.000000
      g+4     :     0.000000
      g-4     :     0.000000
  1 F s       :     0.017146  s :     0.017146
      pz      :    -0.004067  p :     0.044769
      px      :     0.024418
      py      :     0.024418
      dz2     :     0.000307  d :     0.058828
      dxz     :     0.025674
      dyz     :     0.025674
      dx2y2   :     0.003591
      dxy     :     0.003583
      f0      :     0.001375  f :     0.016382
      f+1     :     0.006447
      f-1     :     0.006447
      f+2     :     0.001058
      f-2     :     0.001055
      f+3     :    -0.000000
      f-3     :    -0.000000


                      *****************************
                      * MAYER POPULATION ANALYSIS *
                      *****************************

  NA   - Mulliken gross atomic population
  ZA   - Total nuclear charge
  QA   - Mulliken gross atomic charge
  VA   - Mayer's total valence
  BVA  - Mayer's bonded valence
  FA   - Mayer's free valence

  ATOM       NA         ZA         QA         VA         BVA        FA
  0 Cr    23.4514    24.0000     0.5486     5.6329     0.7465     4.8864
  1 F      9.5486     9.0000    -0.5486     0.7506     0.7465     0.0041

  Mayer bond orders larger than 0.100000
B(  0-Cr,  1-F ) :   0.7465 

-------
TIMINGS
-------

Total SCF time: 0 days 0 hours 0 min 1 sec 

Total time                  ....       1.768 sec
Sum of individual times     ....       1.598 sec  ( 90.4%)

Fock matrix formation       ....       1.395 sec  ( 78.9%)
  Split-RI-J                ....       1.021 sec  ( 73.2% of F)
  XC integration            ....       0.160 sec  ( 11.5% of F)
    Basis function eval.    ....       0.021 sec  ( 12.8% of XC)
    Density eval.           ....       0.024 sec  ( 15.2% of XC)
    XC-Functional eval.     ....       0.006 sec  (  3.6% of XC)
    XC-Potential eval.      ....       0.064 sec  ( 40.0% of XC)
Diagonalization             ....       0.040 sec  (  2.2%)
Density matrix formation    ....       0.005 sec  (  0.3%)
Population analysis         ....       0.007 sec  (  0.4%)
Initial guess               ....       0.014 sec  (  0.8%)
Orbital Transformation      ....       0.000 sec  (  0.0%)
Orbital Orthonormalization  ....       0.009 sec  (  0.5%)
DIIS solution               ....       0.011 sec  (  0.6%)
Grid generation             ....       0.126 sec  (  7.1%)


-------------------------------------------------------------------------------
                          DFT DISPERSION CORRECTION                            
                                                                               
                              DFTD3 V3.1  Rev 1                                
                          USING Becke-Johnson damping                          
-------------------------------------------------------------------------------
The TPSS functional is recognized
Active option DFTDOPT                   ...         4   

molecular C6(AA) [au] = 448.208639 


            DFT-D V3
 parameters
 s6 scaling factor         :     1.0000 
 a1 scaling factor         :     0.4535 
 s8 scaling factor         :     1.9435 
 a2 scaling factor         :     4.4752 
 ad hoc parameters k1-k3   :    16.0000     1.3333    -4.0000 

 Edisp/kcal,au: -0.384284861018  -0.000612396842 
 E6   /kcal   :  -0.157066956 
 E8   /kcal   :  -0.227217905 
 % E8         :  59.127467230 

-------------------------   ----------------
Dispersion correction           -0.000612397
-------------------------   ----------------


-------------------------   --------------------
FINAL SINGLE POINT ENERGY     -1144.443670639627
-------------------------   --------------------

                                *** OPTIMIZATION RUN DONE ***

                            ***************************************
                            *     ORCA property calculations      *
                            ***************************************

                                    ---------------------
                                    Active property flags
                                    ---------------------
   (+) Dipole Moment


------------------------------------------------------------------------------
                       ORCA ELECTRIC PROPERTIES CALCULATION
------------------------------------------------------------------------------

Dipole Moment Calculation                       ... on
Quadrupole Moment Calculation                   ... off
Polarizability Calculation                      ... off
GBWName                                         ... 20_CrF.gbw
Electron density file                           ... 20_CrF.scfp
The origin for moment calculation is the CENTER OF MASS  = ( 0.000000,  0.000000  1.104960)

-------------
DIPOLE MOMENT
-------------
                                X             Y             Z
Electronic contribution:      0.00000       0.00000      -2.01940
Nuclear contribution   :      0.00000       0.00000       0.57299
                        -----------------------------------------
Total Dipole Moment    :      0.00000       0.00000      -1.44641
                        -----------------------------------------
Magnitude (a.u.)       :      1.44641
Magnitude (Debye)      :      3.67648



--------------------
Rotational spectrum 
--------------------
 
Rotational constants in cm-1:     0.000000     0.379469     0.379469 
Rotational constants in MHz :     0.000000 11376.206933 11376.206933 

 Dipole components along the rotational axes: 
x,y,z [a.u.] :    -1.446407     0.000000     0.000000 
x,y,z [Debye]:    -3.676475     0.000000     0.000000 

 

Timings for individual modules:

Sum of individual times         ...       56.947 sec (=   0.949 min)
GTO integral calculation        ...       15.505 sec (=   0.258 min)  27.2 %
SCF iterations                  ...       18.210 sec (=   0.304 min)  32.0 %
SCF Gradient evaluation         ...       23.059 sec (=   0.384 min)  40.5 %
Geometry relaxation             ...        0.173 sec (=   0.003 min)   0.3 %
                             ****ORCA TERMINATED NORMALLY****
TOTAL RUN TIME: 0 days 0 hours 0 minutes 57 seconds 800 msec
