
                                 *****************
                                 * O   R   C   A *
                                 *****************

           --- An Ab Initio, DFT and Semiempirical electronic structure package ---

                  #######################################################
                  #                        -***-                        #
                  #          Department of theory and spectroscopy      #
                  #               Directorship: Frank Neese             #
                  #        Max Planck Institute fuer Kohlenforschung    #
                  #                Kaiser Wilhelm Platz 1               #
                  #                 D-45470 Muelheim/Ruhr               #
                  #                      Germany                        #
                  #                                                     #
                  #                  All rights reserved                #
                  #                        -***-                        #
                  #######################################################


                         Program Version 4.2.0 -  RELEASE  -


 With contributions from (in alphabetic order):
   Daniel Aravena         : Magnetic Suceptibility
   Michael Atanasov       : Ab Initio Ligand Field Theory (pilot matlab implementation)
   Alexander A. Auer      : GIAO ZORA, VPT2
   Ute Becker             : Parallelization
   Giovanni Bistoni       : ED, misc. LED, open-shell LED, HFLED
   Martin Brehm           : Molecular dynamics
   Dmytro Bykov           : SCF Hessian
   Vijay G. Chilkuri      : MRCI spin determinant printing, contributions to CSF-ICE
   Dipayan Datta          : RHF DLPNO-CCSD density
   Achintya Kumar Dutta   : EOM-CC, STEOM-CC
   Dmitry Ganyushin       : Spin-Orbit,Spin-Spin,Magnetic field MRCI
   Miquel Garcia          : C-PCM Hessian, Gaussian charge scheme
   Yang Guo               : DLPNO-NEVPT2, CIM, IAO-localization
   Andreas Hansen         : Spin unrestricted coupled pair/coupled cluster methods
   Benjamin Helmich-Paris : CASSCF linear response (MC-RPA)
   Lee Huntington         : MR-EOM, pCC
   Robert Izsak           : Overlap fitted RIJCOSX, COSX-SCS-MP3, EOM
   Christian Kollmar      : KDIIS, OOCD, Brueckner-CCSD(T), CCSD density
   Simone Kossmann        : Meta GGA functionals, TD-DFT gradient, OOMP2, MP2 Hessian
   Martin Krupicka        : AUTO-CI
   Lucas Lang             : DCDCAS
   Dagmar Lenk            : GEPOL surface, SMD
   Dimitrios Liakos       : Extrapolation schemes; Compound Job, initial MDCI parallelization
   Dimitrios Manganas     : Further ROCIS development; embedding schemes
   Dimitrios Pantazis     : SARC Basis sets
   Taras Petrenko         : DFT Hessian,TD-DFT gradient, ASA, ECA, R-Raman, ABS, FL, XAS/XES, NRVS
   Peter Pinski           : DLPNO-MP2, DLPNO-MP2 Gradient
   Christoph Reimann      : Effective Core Potentials
   Marius Retegan         : Local ZFS, SOC
   Christoph Riplinger    : Optimizer, TS searches, QM/MM, DLPNO-CCSD(T), (RO)-DLPNO pert. Triples
   Tobias Risthaus        : Range-separated hybrids, TD-DFT gradient, RPA, STAB
   Michael Roemelt        : Original ROCIS implementation
   Masaaki Saitow         : Open-shell DLPNO-CCSD energy and density
   Barbara Sandhoefer     : DKH picture change effects
   Avijit Sen             : IP-ROCIS
   Kantharuban Sivalingam : CASSCF convergence, NEVPT2, FIC-MRCI
   Bernardo de Souza      : ESD, SOC TD-DFT
   Georgi Stoychev        : AutoAux, RI-MP2 NMR
   Willem Van den Heuvel  : Paramagnetic NMR
   Boris Wezisla          : Elementary symmetry handling
   Frank Wennmohs         : Technical directorship


 We gratefully acknowledge several colleagues who have allowed us to
 interface, adapt or use parts of their codes:
   Stefan Grimme, W. Hujo, H. Kruse,             : VdW corrections, initial TS optimization,
                  C. Bannwarth                     DFT functionals, gCP, sTDA/sTD-DF
   Ed Valeev, F. Pavosevic, A. Kumar             : LibInt (2-el integral package), F12 methods
   Garnet Chan, S. Sharma, J. Yang, R. Olivares  : DMRG
   Ulf Ekstrom                                   : XCFun DFT Library
   Mihaly Kallay                                 : mrcc  (arbitrary order and MRCC methods)
   Andreas Klamt, Michael Diedenhofen            : otool_cosmo (COSMO solvation model)
   Jiri Pittner, Ondrej Demel                    : Mk-CCSD
   Frank Weinhold                                : gennbo (NPA and NBO analysis)
   Christopher J. Cramer and Donald G. Truhlar   : smd solvation model
   Lars Goerigk                                  : TD-DFT with DH, B97 family of functionals
   V. Asgeirsson, H. Jonsson                     : NEB implementation
   FAccTs GmbH                                   : IRC, NEB, NEB-TS, Multilevel, MM, QM/MM, CI optimization
   S Lehtola, MJT Oliveira, MAL Marques          : LibXC Library


 Your calculation uses the libint2 library for the computation of 2-el integrals
 For citations please refer to: http://libint.valeyev.net

 Your ORCA version has been built with support for libXC version: 4.2.3
 For citations please refer to: https://tddft.org/programs/libxc/

 This ORCA versions uses:
   CBLAS   interface :  Fast vector & matrix operations
   LAPACKE interface :  Fast linear algebra routines
   SCALAPACK package :  Parallel linear algebra routines


Your calculation utilizes the atom-pairwise dispersion correction
with the Becke-Johnson damping scheme (D3BJ)
Cite in your paper:
S.Grimme, S.Ehrlich, L.Goerigk, J Comput Chem, (2011), 32, 1456–1465 
S.Grimme, J.Antony, S.Ehrlich and H.Krieg, J.Chem.Phys., 132, (2010), 154104 
   

----- Orbital basis set information -----
Your calculation utilizes the basis: aug-cc-pVTZ 
    H, B-Ne : Obtained from the ccRepo (grant-hill.group.shef.ac.uk/ccrepo) Feb. 2017
              R. A. Kendall, T. H. Dunning, Jr., R. J. Harrison, J. Chem. Phys. 96, 6796 (1992)
         He : Obtained from the ccRepo (grant-hill.group.shef.ac.uk/ccrepo) Feb. 2017
              D. E. Woon, T. H. Dunning, Jr., J. Chem. Phys. 100, 2975 (1994)
  Li-Be, Na : Obtained from the ccRepo (grant-hill.group.shef.ac.uk/ccrepo) Feb. 2017
              B. P. Prascher, D. E. Woon, K. A. Peterson, T. H. Dunning, Jr., A. K. Wilson, Theor. Chem. Acc. 128, 69 (2011)
         Mg : Obtained from the Peterson Research Group Website (tyr0.chem.wsu.edu/~kipeters) Feb. 2017
              B. P. Prascher, D. E. Woon, K. A. Peterson, T. H. Dunning, Jr., A. K. Wilson, Theor. Chem. Acc. 128, 69 (2011)
      Al-Ar : Obtained from the ccRepo (grant-hill.group.shef.ac.uk/ccrepo) Feb. 2017
              D. E. Woon, T. H. Dunning, Jr., J. Chem. Phys. 98, 1358 (1993)
      Sc-Zn : Obtained from the ccRepo (grant-hill.group.shef.ac.uk/ccrepo) Feb. 2017
              N. B. Balabanov, K. A. Peterson, J. Chem. Phys. 123, 064107 (2005)
              N. B. Balabanov, K. A. Peterson, J. Chem. Phys. 125, 074110 (2006)
      Ga-Kr : Obtained from the ccRepo (grant-hill.group.shef.ac.uk/ccrepo) Feb. 2017
              A. K. Wilson, D. E. Woon, K. A. Peterson, T. H. Dunning, Jr., J. Chem. Phys. 110, 7667 (1999)
     Ag, Au : Obtained from the Peterson Research Group Website (tyr0.chem.wsu.edu/~kipeters) Feb. 2017
              K. A. Peterson, C. Puzzarini, Theor. Chem. Acc. 114, 283 (2005)

----- AuxJ basis set information -----
Your calculation utilizes the auxiliary basis: def2/J
   F. Weigend, Phys. Chem. Chem. Phys. 8, 1057 (2006).

================================================================================
                                        WARNINGS
                       Please study these warnings very carefully!
================================================================================


WARNING: your system is open-shell and RHF/RKS was chosen
  ===> : WILL SWITCH to UHF/UKS


WARNING: Geometry Optimization
  ===> : Switching off AutoStart
         For restart on a previous wavefunction, please use MOREAD

INFO   : the flag for use of LIBINT has been found!

================================================================================
                                       INPUT FILE
================================================================================
NAME = 21_CrCl.in
|  1> #
|  2> # 21_CrCl tpss/aug-cc-pvtz
|  3> #
|  4> ! tpss d3bj aug-cc-pvtz def2/j opt xyzfile
|  5> 
|  6> *xyz 0 6
|  7> Cr 0.0 0.0 0.0
|  8> Cl 0.0 0.0 2.0
|  9> *
| 10> 
| 11> %pal
| 12> nprocs 24
| 13> end
| 14> 
| 15> 
| 16>                          ****END OF INPUT****
================================================================================

                       *****************************
                       * Geometry Optimization Run *
                       *****************************

Geometry optimization settings:
Update method            Update   .... BFGS
Choice of coordinates    CoordSys .... Z-matrix Internals
Initial Hessian          InHess   .... Almoef's Model

Convergence Tolerances:
Energy Change            TolE     ....  5.0000e-06 Eh
Max. Gradient            TolMAXG  ....  3.0000e-04 Eh/bohr
RMS Gradient             TolRMSG  ....  1.0000e-04 Eh/bohr
Max. Displacement        TolMAXD  ....  4.0000e-03 bohr
RMS Displacement         TolRMSD  ....  2.0000e-03 bohr
Strict Convergence                ....  False
------------------------------------------------------------------------------
                        ORCA OPTIMIZATION COORDINATE SETUP
------------------------------------------------------------------------------

The optimization will be done in new redundant internal coordinates
Making redundant internal coordinates   ...  (new redundants) done
Evaluating the initial hessian          ...  (Almloef) done
Evaluating the coordinates              ...  done
Calculating the B-matrix                .... done
Calculating the G-matrix                .... done
Diagonalizing the G-matrix              .... done
The first mode is                       ....    0
The number of degrees of freedom        ....    1

    -----------------------------------------------------------------
                    Redundant Internal Coordinates


    -----------------------------------------------------------------
         Definition                    Initial Value    Approx d2E/dq
    -----------------------------------------------------------------
      1. B(Cl  1,Cr  0)                  2.0000         1.508840   
    -----------------------------------------------------------------

Number of atoms                         .... 2
Number of degrees of freedom            .... 1

         *************************************************************
         *                GEOMETRY OPTIMIZATION CYCLE   1            *
         *************************************************************
---------------------------------
CARTESIAN COORDINATES (ANGSTROEM)
---------------------------------
  Cr     0.000000    0.000000    0.000000
  Cl     0.000000    0.000000    2.000000

----------------------------
CARTESIAN COORDINATES (A.U.)
----------------------------
  NO LB      ZA    FRAG     MASS         X           Y           Z
   0 Cr   24.0000    0    52.000    0.000000    0.000000    0.000000
   1 Cl   17.0000    0    35.453    0.000000    0.000000    3.779452

--------------------------------
INTERNAL COORDINATES (ANGSTROEM)
--------------------------------
 Cr     0   0   0     0.000000000000     0.00000000     0.00000000
 Cl     1   0   0     2.000000000000     0.00000000     0.00000000

---------------------------
INTERNAL COORDINATES (A.U.)
---------------------------
 Cr     0   0   0     0.000000000000     0.00000000     0.00000000
 Cl     1   0   0     3.779452267843     0.00000000     0.00000000

---------------------
BASIS SET INFORMATION
---------------------
There are 2 groups of distinct atoms

 Group   1 Type Cr  : 116s77p23d3f2g contracted to 8s7p5d3f2g pattern {19191919191911/151515151511/77711/111/11}
 Group   2 Type Cl  : 42s17p3d2f contracted to 6s5p3d2f pattern {131313111/77111/111/11}

Atom   0Cr   basis set group =>   1
Atom   1Cl   basis set group =>   2
---------------------------------
AUXILIARY/J BASIS SET INFORMATION
---------------------------------
There are 2 groups of distinct atoms

 Group   1 Type Cr  : 19s5p5d3f3g contracted to 8s5p5d2f3g pattern {121111111/11111/11111/21/111}
 Group   2 Type Cl  : 14s5p5d2f1g contracted to 8s4p3d1f1g pattern {71111111/2111/311/2/1}

Atom   0Cr   basis set group =>   1
Atom   1Cl   basis set group =>   2


           ************************************************************
           *        Program running with 24 parallel MPI-processes    *
           *              working on a common directory               *
           ************************************************************
------------------------------------------------------------------------------
                           ORCA GTO INTEGRAL CALCULATION
                           -- RI-GTO INTEGRALS CHOSEN --
------------------------------------------------------------------------------

                         BASIS SET STATISTICS AND STARTUP INFO

Gaussian basis set:
 # of primitive gaussian shells          ...  285
 # of primitive gaussian functions       ...  623
 # of contracted shells                  ...   41
 # of contracted basis functions         ...  143
 Highest angular momentum                ...    4
 Maximum contraction depth               ...   19
Auxiliary gaussian basis set:
 # of primitive gaussian shells          ...   62
 # of primitive gaussian functions       ...  184
 # of contracted shells                  ...   40
 # of contracted aux-basis functions     ...  140
 Highest angular momentum                ...    4
 Maximum contraction depth               ...   12
Ratio of auxiliary to basis functions    ...  0.98
Integral package used                  ... LIBINT
 One Electron integrals                  ... done
 Ordering auxiliary basis shells         ... done
 Integral threshhold             Thresh  ...  2.500e-11
 Primitive cut-off               TCut    ...  2.500e-12
 Pre-screening matrix                    ... done
 Shell pair data                         ... 
 Ordering of the shell pairs             ... done (   0.000 sec) 861 of 861 pairs
 Determination of significant pairs      ... done (   0.000 sec)
 Creation of shell pair data             ... done (   0.001 sec)
 Storage of shell pair data              ... done (   0.019 sec)
 Shell pair data done in (   0.020 sec)
 Computing two index integrals           ... done
 Cholesky decomposition of the V-matrix  ... done


Timings:
 Total evaluation time                   ...   2.585 sec (  0.043 min)
 One electron matrix time                ...   0.047 sec (  0.001 min) =  1.8%
 Schwartz matrix evaluation time         ...   2.489 sec (  0.041 min) = 96.3%
 Two index repulsion integral time       ...   0.001 sec (  0.000 min) =  0.0%
 Cholesky decomposition of V             ...   0.003 sec (  0.000 min) =  0.1%
 Three index repulsion integral time     ...   0.000 sec (  0.000 min) =  0.0%



           ************************************************************
           *        Program running with 24 parallel MPI-processes    *
           *              working on a common directory               *
           ************************************************************
-------------------------------------------------------------------------------
                                 ORCA SCF
-------------------------------------------------------------------------------

------------
SCF SETTINGS
------------
Hamiltonian:
 Density Functional     Method          .... DFT(GTOs)
 Exchange Functional    Exchange        .... TPSS
 Correlation Functional Correlation     .... TPSS
 LDA part of GGA corr.  LDAOpt          .... PW91-LDA
 Gradients option       PostSCFGGA      .... off
   Density functional embedding theory  .... OFF
   NL short-range parameter             ....  5.000000
 RI-approximation to the Coulomb term is turned on
   Number of auxiliary basis functions  .... 140


General Settings:
 Integral files         IntName         .... 21_CrCl
 Hartree-Fock type      HFTyp           .... UHF
 Total Charge           Charge          ....    0
 Multiplicity           Mult            ....    6
 Number of Electrons    NEL             ....   41
 Basis Dimension        Dim             ....  143
 Nuclear Repulsion      ENuc            ....    107.9521504932 Eh

Convergence Acceleration:
 DIIS                   CNVDIIS         .... on
   Start iteration      DIISMaxIt       ....    12
   Startup error        DIISStart       ....  0.200000
   # of expansion vecs  DIISMaxEq       ....     5
   Bias factor          DIISBfac        ....   1.050
   Max. coefficient     DIISMaxC        ....  10.000
 Newton-Raphson         CNVNR           .... off
 SOSCF                  CNVSOSCF        .... off
 Level Shifting         CNVShift        .... on
   Level shift para.    LevelShift      ....    0.2500
   Turn off err/grad.   ShiftErr        ....    0.0010
 Zerner damping         CNVZerner       .... off
 Static damping         CNVDamp         .... on
   Fraction old density DampFac         ....    0.7000
   Max. Damping (<1)    DampMax         ....    0.9800
   Min. Damping (>=0)   DampMin         ....    0.0000
   Turn off err/grad.   DampErr         ....    0.1000
 Fernandez-Rico         CNVRico         .... off

SCF Procedure:
 Maximum # iterations   MaxIter         ....   125
 SCF integral mode      SCFMode         .... Direct
   Integral package                     .... LIBINT
 Reset frequency        DirectResetFreq ....    20
 Integral Threshold     Thresh          ....  2.500e-11 Eh
 Primitive CutOff       TCut            ....  2.500e-12 Eh

Convergence Tolerance:
 Convergence Check Mode ConvCheckMode   .... Total+1el-Energy
 Convergence forced     ConvForced      .... 0
 Energy Change          TolE            ....  1.000e-08 Eh
 1-El. energy change                    ....  1.000e-05 Eh
 DIIS Error             TolErr          ....  5.000e-07


Diagonalization of the overlap matrix:
Smallest eigenvalue                        ... 9.063e-05
Time for diagonalization                   ...    0.005 sec
Threshold for overlap eigenvalues          ... 1.000e-08
Number of eigenvalues below threshold      ... 0
Time for construction of square roots      ...    0.003 sec
Total time needed                          ...    0.008 sec

-------------------
DFT GRID GENERATION
-------------------

General Integration Accuracy     IntAcc      ...  4.340
Radial Grid Type                 RadialGrid  ... Gauss-Chebyshev
Angular Grid (max. acc.)         AngularGrid ... Lebedev-110
Angular grid pruning method      GridPruning ... 3 (G Style)
Weight generation scheme         WeightScheme... Becke
Basis function cutoff            BFCut       ...    1.0000e-11
Integration weight cutoff        WCut        ...    1.0000e-14
Grids for H and He will be reduced by one unit

# of grid points (after initial pruning)     ...   4816 (   0.0 sec)
# of grid points (after weights+screening)   ...   4791 (   0.0 sec)
nearest neighbour list constructed           ...    0.0 sec
Grid point re-assignment to atoms done       ...    0.0 sec
Grid point division into batches done        ...    0.0 sec
Reduced shell lists constructed in    0.0 sec

Total number of grid points                  ...     4791
Total number of batches                      ...       76
Average number of points per batch           ...       63
Average number of grid points per atom       ...     2396
Average number of shells per batch           ...    23.60 (57.56%)
Average number of basis functions per batch  ...    77.20 (53.99%)
Average number of large shells per batch     ...    17.60 (74.58%)
Average number of large basis fcns per batch ...    51.20 (66.32%)
Maximum spatial batch extension              ...  18.98, 28.73, 16.15 au
Average spatial batch extension              ...   0.92,  1.26,  0.85 au

Time for grid setup =    0.025 sec

------------------------------
INITIAL GUESS: MODEL POTENTIAL
------------------------------
Loading Hartree-Fock densities                     ... done
Calculating cut-offs                               ... done
Setting up the integral package                    ... done
Initializing the effective Hamiltonian             ... done
Starting the Coulomb interaction                   ... done (   0.0 sec)
Reading the grid                                   ... done
Mapping shells                                     ... done
Starting the XC term evaluation                    ... done (   0.0 sec)
  promolecular density results
     # of electrons  =     40.999800028
     EX              =    -74.614574731
     EC              =     -1.684364637
     EX+EC           =    -76.298939367
Transforming the Hamiltonian                       ... done (   0.0 sec)
Diagonalizing the Hamiltonian                      ... done (   0.0 sec)
Back transforming the eigenvectors                 ... done (   0.0 sec)
Now organizing SCF variables                       ... done
                      ------------------
                      INITIAL GUESS DONE (   0.1 sec)
                      ------------------
--------------
SCF ITERATIONS
--------------
ITER       Energy         Delta-E        Max-DP      RMS-DP      [F,P]     Damp
               ***  Starting incremental Fock matrix formation  ***
  0  -1504.7215632410   0.000000000000 0.08889383  0.00173220  0.1180159 0.7000
  1  -1504.7577063658  -0.036143124809 0.04294844  0.00061559  0.0492232 0.7000
                               ***Turning on DIIS***
  2  -1504.7692821121  -0.011575746309 0.11655923  0.00218646  0.0236848 0.0000
  3  -1504.7929987251  -0.023716612978 0.02291223  0.00048781  0.0346353 0.0000
  4  -1504.7970012423  -0.004002517239 0.03801778  0.00077359  0.0214649 0.0000
  5  -1504.7981482127  -0.001146970342 0.00862135  0.00017388  0.0048422 0.0000
  6  -1504.7982813605  -0.000133147787 0.00322405  0.00006615  0.0015529 0.0000
  7  -1504.7983103781  -0.000029017678 0.00697707  0.00006618  0.0005834 0.0000
  8  -1504.7983278116  -0.000017433467 0.00039530  0.00000975  0.0006980 0.0000
  9  -1504.7983293374  -0.000001525810 0.00032032  0.00000552  0.0001416 0.0000
 10  -1504.7983294088  -0.000000071347 0.00022170  0.00000265  0.0001090 0.0000
 11  -1504.7983294893  -0.000000080586 0.00003320  0.00000056  0.0000643 0.0000
 12  -1504.7983295222  -0.000000032863 0.00001424  0.00000029  0.0000121 0.0000
 13  -1504.7983295520  -0.000000029832 0.00001445  0.00000017  0.0000080 0.0000
 14  -1504.7983295755  -0.000000023409 0.00000255  0.00000004  0.0000018 0.0000
                 **** Energy Check signals convergence ****

               *****************************************************
               *                     SUCCESS                       *
               *           SCF CONVERGED AFTER  15 CYCLES          *
               *****************************************************

Setting up the final grid:

General Integration Accuracy     IntAcc      ...  4.670
Radial Grid Type                 RadialGrid  ... Gauss-Chebyshev
Angular Grid (max. acc.)         AngularGrid ... Lebedev-302
Angular grid pruning method      GridPruning ... 3 (G Style)
Weight generation scheme         WeightScheme... Becke
Basis function cutoff            BFCut       ...    1.0000e-11
Integration weight cutoff        WCut        ...    1.0000e-14
Grids for H and He will be reduced by one unit

# of grid points (after initial pruning)     ...  16402 (   0.0 sec)
# of grid points (after weights+screening)   ...  16373 (   0.0 sec)
nearest neighbour list constructed           ...    0.0 sec
Grid point re-assignment to atoms done       ...    0.0 sec
Grid point division into batches done        ...    0.1 sec
Reduced shell lists constructed in    0.1 sec

Total number of grid points                  ...    16373
Total number of batches                      ...      257
Average number of points per batch           ...       63
Average number of grid points per atom       ...     8186
Average number of shells per batch           ...    15.92 (38.82%)
Average number of basis functions per batch  ...    41.75 (29.20%)
Average number of large shells per batch     ...     9.00 (56.54%)
Average number of large basis fcns per batch ...    25.33 (60.68%)
Maximum spatial batch extension              ...  24.49, 24.19, 18.13 au
Average spatial batch extension              ...   0.85,  0.84,  0.65 au

Final grid set up in    0.1 sec
Final integration                            ... done (   0.0 sec)
Change in XC energy                          ...     0.001108528
Integrated number of electrons               ...    41.000000671
Previous integrated no of electrons          ...    40.999801955

----------------
TOTAL SCF ENERGY
----------------

Total Energy       :        -1504.79722104 Eh          -40947.61412 eV

Components:
Nuclear Repulsion  :          107.95215049 Eh            2937.52736 eV
Electronic Energy  :        -1612.74937154 Eh          -43885.14148 eV
One Electron Energy:        -2289.25295842 Eh          -62293.73995 eV
Two Electron Energy:          676.50358689 Eh           18408.59847 eV

Virial components:
Potential Energy   :        -3006.76916159 Eh          -81818.34845 eV
Kinetic Energy     :         1501.97194055 Eh           40870.73433 eV
Virial Ratio       :            2.00188105


DFT components:
N(Alpha)           :       23.000000485090 electrons
N(Beta)            :       18.000000186330 electrons
N(Total)           :       41.000000671420 electrons
E(X)               :      -75.408631525782 Eh       
E(C)               :       -1.680730484262 Eh       
E(XC)              :      -77.089362010044 Eh       
DFET-embed. en.    :        0.000000000000 Eh       

---------------
SCF CONVERGENCE
---------------

  Last Energy change         ...    3.5652e-09  Tolerance :   1.0000e-08
  Last MAX-Density change    ...    2.1683e-06  Tolerance :   1.0000e-07
  Last RMS-Density change    ...    2.4614e-08  Tolerance :   5.0000e-09
  Last DIIS Error            ...    3.1121e-07  Tolerance :   5.0000e-07

             **** THE GBW FILE WAS UPDATED (21_CrCl.gbw) ****
             **** DENSITY FILE WAS UPDATED (21_CrCl.scfp) ****
             **** ENERGY FILE WAS UPDATED (21_CrCl.en.tmp) ****
----------------------
UHF SPIN CONTAMINATION
----------------------

Warning: in a DFT calculation there is little theoretical justification to 
         calculate <S**2> as in Hartree-Fock theory. We will do it anyways
         but you should keep in mind that the values have only limited relevance

Expectation value of <S**2>     :     8.764842
Ideal value S*(S+1) for S=2.5   :     8.750000
Deviation                       :     0.014842

             **** THE GBW FILE WAS UPDATED (21_CrCl.gbw) ****
             **** DENSITY FILE WAS UPDATED (21_CrCl.scfp) ****
----------------
ORBITAL ENERGIES
----------------
                 SPIN UP ORBITALS
  NO   OCC          E(Eh)            E(eV) 
   0   1.0000    -214.914848     -5848.1303 
   1   1.0000    -100.981184     -2747.8377 
   2   1.0000     -24.316761      -661.6927 
   3   1.0000     -20.618925      -561.0695 
   4   1.0000     -20.617734      -561.0371 
   5   1.0000     -20.617734      -561.0371 
   6   1.0000      -9.211169      -250.6487 
   7   1.0000      -6.986614      -190.1154 
   8   1.0000      -6.984991      -190.0713 
   9   1.0000      -6.984991      -190.0713 
  10   1.0000      -2.783478       -75.7423 
  11   1.0000      -1.765202       -48.0336 
  12   1.0000      -1.754871       -47.7525 
  13   1.0000      -1.754871       -47.7525 
  14   1.0000      -0.721915       -19.6443 
  15   1.0000      -0.321036        -8.7358 
  16   1.0000      -0.293748        -7.9933 
  17   1.0000      -0.293748        -7.9933 
  18   1.0000      -0.179884        -4.8949 
  19   1.0000      -0.179618        -4.8877 
  20   1.0000      -0.179370        -4.8809 
  21   1.0000      -0.170535        -4.6405 
  22   1.0000      -0.170535        -4.6405 
  23   0.0000      -0.110537        -3.0079 
  24   0.0000      -0.034904        -0.9498 
  25   0.0000      -0.034904        -0.9498 
  26   0.0000       0.001443         0.0393 
  27   0.0000       0.002707         0.0737 
  28   0.0000       0.023022         0.6265 
  29   0.0000       0.023022         0.6265 
  30   0.0000       0.039427         1.0729 
  31   0.0000       0.039682         1.0798 
  32   0.0000       0.043104         1.1729 
  33   0.0000       0.044152         1.2014 
  34   0.0000       0.044152         1.2014 
  35   0.0000       0.060586         1.6486 
  36   0.0000       0.101595         2.7645 
  37   0.0000       0.118322         3.2197 
  38   0.0000       0.118323         3.2197 
  39   0.0000       0.123928         3.3722 
  40   0.0000       0.140049         3.8109 
  41   0.0000       0.140049         3.8109 
  42   0.0000       0.180420         4.9095 
  43   0.0000       0.181184         4.9303 
  44   0.0000       0.181840         4.9481 
  45   0.0000       0.197490         5.3740 
  46   0.0000       0.197490         5.3740 
  47   0.0000       0.227078         6.1791 
  48   0.0000       0.255870         6.9626 
  49   0.0000       0.256066         6.9679 
  50   0.0000       0.310012         8.4358 
  51   0.0000       0.338652         9.2152 
  52   0.0000       0.338652         9.2152 
  53   0.0000       0.379983        10.3399 
  54   0.0000       0.494969        13.4688 
  55   0.0000       0.494969        13.4688 
  56   0.0000       0.568695        15.4750 
  57   0.0000       0.568695        15.4750 
  58   0.0000       0.569187        15.4884 
  59   0.0000       0.572249        15.5717 
  60   0.0000       0.584148        15.8955 
  61   0.0000       0.584148        15.8955 
  62   0.0000       0.597631        16.2624 
  63   0.0000       0.636929        17.3317 
  64   0.0000       0.636929        17.3317 
  65   0.0000       0.641236        17.4489 
  66   0.0000       0.711372        19.3574 
  67   0.0000       0.712633        19.3917 
  68   0.0000       0.746539        20.3144 
  69   0.0000       0.746539        20.3144 
  70   0.0000       0.771288        20.9878 
  71   0.0000       0.773032        21.0353 
  72   0.0000       0.778600        21.1868 
  73   0.0000       0.802530        21.8380 
  74   0.0000       0.972249        26.4562 
  75   0.0000       0.972249        26.4562 
  76   0.0000       1.006347        27.3841 
  77   0.0000       1.006347        27.3841 
  78   0.0000       1.009962        27.4825 
  79   0.0000       1.168748        31.8033 
  80   0.0000       1.168796        31.8046 
  81   0.0000       1.170079        31.8395 
  82   0.0000       1.443216        39.2719 
  83   0.0000       1.443216        39.2719 
  84   0.0000       1.646996        44.8170 
  85   0.0000       1.721401        46.8417 
  86   0.0000       1.721401        46.8417 
  87   0.0000       1.737726        47.2859 
  88   0.0000       1.738529        47.3078 
  89   0.0000       1.776897        48.3518 
  90   0.0000       1.857850        50.5547 
  91   0.0000       1.857850        50.5547 
  92   0.0000       2.034404        55.3590 
  93   0.0000       2.113972        57.5241 
  94   0.0000       2.118930        57.6590 
  95   0.0000       2.133654        58.0597 
  96   0.0000       2.133654        58.0597 
  97   0.0000       2.163920        58.8833 
  98   0.0000       2.169140        59.0253 
  99   0.0000       2.207136        60.0592 
 100   0.0000       2.207136        60.0592 
 101   0.0000       2.285319        62.1867 
 102   0.0000       2.308693        62.8227 
 103   0.0000       2.308693        62.8227 
 104   0.0000       2.343939        63.7818 
 105   0.0000       2.346734        63.8579 
 106   0.0000       2.346734        63.8579 
 107   0.0000       2.360213        64.2247 
 108   0.0000       2.362864        64.2968 
 109   0.0000       2.620528        71.3082 
 110   0.0000       2.620528        71.3082 
 111   0.0000       2.648853        72.0790 
 112   0.0000       2.747930        74.7750 
 113   0.0000       2.747930        74.7750 
 114   0.0000       2.816268        76.6346 
 115   0.0000       2.824524        76.8592 
 116   0.0000       2.896168        78.8087 
 117   0.0000       3.148411        85.6726 
 118   0.0000       3.148411        85.6726 
 119   0.0000       3.222852        87.6983 
 120   0.0000       3.223308        87.7107 
 121   0.0000       3.520279        95.7917 
 122   0.0000       3.520279        95.7917 
 123   0.0000       3.602382        98.0258 
 124   0.0000       4.055789       110.3636 
 125   0.0000       6.016316       163.7123 
 126   0.0000       6.043589       164.4544 
 127   0.0000       6.043589       164.4544 
 128   0.0000       6.047981       164.5739 
 129   0.0000       6.049955       164.6276 
 130   0.0000       6.168730       167.8597 
 131   0.0000       6.168730       167.8597 
 132   0.0000       6.390563       173.8960 
 133   0.0000       6.564701       178.6346 
 134   0.0000       6.566125       178.6733 
 135   0.0000       6.570549       178.7937 
 136   0.0000       6.570549       178.7937 
 137   0.0000       6.644475       180.8054 
 138   0.0000       6.653007       181.0375 
 139   0.0000       6.811333       185.3458 
 140   0.0000       6.811333       185.3458 
 141   0.0000       6.978729       189.9009 
 142   0.0000       7.722706       210.1455 

                 SPIN DOWN ORBITALS
  NO   OCC          E(Eh)            E(eV) 
   0   1.0000    -214.913941     -5848.1056 
   1   1.0000    -100.981332     -2747.8417 
   2   1.0000     -24.265571      -660.2998 
   3   1.0000     -20.581637      -560.0548 
   4   1.0000     -20.574178      -559.8519 
   5   1.0000     -20.574178      -559.8519 
   6   1.0000      -9.211273      -250.6515 
   7   1.0000      -6.987877      -190.1498 
   8   1.0000      -6.984600      -190.0606 
   9   1.0000      -6.984600      -190.0606 
  10   1.0000      -2.629978       -71.5653 
  11   1.0000      -1.620282       -44.0901 
  12   1.0000      -1.595103       -43.4050 
  13   1.0000      -1.595103       -43.4050 
  14   1.0000      -0.720004       -19.5923 
  15   1.0000      -0.308616        -8.3979 
  16   1.0000      -0.278802        -7.5866 
  17   1.0000      -0.278802        -7.5866 
  18   0.0000      -0.093190        -2.5358 
  19   0.0000      -0.044771        -1.2183 
  20   0.0000      -0.041449        -1.1279 
  21   0.0000      -0.041449        -1.1279 
  22   0.0000      -0.037926        -1.0320 
  23   0.0000      -0.037752        -1.0273 
  24   0.0000       0.006258         0.1703 
  25   0.0000       0.006258         0.1703 
  26   0.0000       0.012823         0.3489 
  27   0.0000       0.019477         0.5300 
  28   0.0000       0.040768         1.1094 
  29   0.0000       0.040768         1.1094 
  30   0.0000       0.060530         1.6471 
  31   0.0000       0.060530         1.6471 
  32   0.0000       0.061276         1.6674 
  33   0.0000       0.062987         1.7140 
  34   0.0000       0.063051         1.7157 
  35   0.0000       0.071672         1.9503 
  36   0.0000       0.130038         3.5385 
  37   0.0000       0.130038         3.5385 
  38   0.0000       0.130303         3.5457 
  39   0.0000       0.141143         3.8407 
  40   0.0000       0.174151         4.7389 
  41   0.0000       0.174151         4.7389 
  42   0.0000       0.212866         5.7924 
  43   0.0000       0.213040         5.7971 
  44   0.0000       0.214585         5.8391 
  45   0.0000       0.230668         6.2768 
  46   0.0000       0.230668         6.2768 
  47   0.0000       0.235967         6.4210 
  48   0.0000       0.272901         7.4260 
  49   0.0000       0.273219         7.4347 
  50   0.0000       0.336449         9.1552 
  51   0.0000       0.352270         9.5857 
  52   0.0000       0.352270         9.5857 
  53   0.0000       0.400445        10.8967 
  54   0.0000       0.540208        14.6998 
  55   0.0000       0.540208        14.6998 
  56   0.0000       0.591088        16.0843 
  57   0.0000       0.591088        16.0843 
  58   0.0000       0.606031        16.4909 
  59   0.0000       0.608380        16.5549 
  60   0.0000       0.630396        17.1539 
  61   0.0000       0.630396        17.1539 
  62   0.0000       0.646371        17.5886 
  63   0.0000       0.668462        18.1898 
  64   0.0000       0.680645        18.5213 
  65   0.0000       0.680645        18.5213 
  66   0.0000       0.720554        19.6073 
  67   0.0000       0.721396        19.6302 
  68   0.0000       0.765862        20.8402 
  69   0.0000       0.765862        20.8402 
  70   0.0000       0.794412        21.6171 
  71   0.0000       0.814635        22.1673 
  72   0.0000       0.846953        23.0468 
  73   0.0000       0.848243        23.0819 
  74   0.0000       1.011272        27.5181 
  75   0.0000       1.011272        27.5181 
  76   0.0000       1.016668        27.6650 
  77   0.0000       1.016668        27.6650 
  78   0.0000       1.027740        27.9662 
  79   0.0000       1.183436        32.2029 
  80   0.0000       1.184204        32.2238 
  81   0.0000       1.226066        33.3629 
  82   0.0000       1.478171        40.2231 
  83   0.0000       1.478171        40.2231 
  84   0.0000       1.718286        46.7569 
  85   0.0000       1.828477        49.7554 
  86   0.0000       1.828477        49.7554 
  87   0.0000       1.831500        49.8377 
  88   0.0000       1.839988        50.0686 
  89   0.0000       1.840664        50.0870 
  90   0.0000       1.922702        52.3194 
  91   0.0000       1.922702        52.3194 
  92   0.0000       2.069764        56.3212 
  93   0.0000       2.178924        59.2915 
  94   0.0000       2.185269        59.4642 
  95   0.0000       2.194005        59.7019 
  96   0.0000       2.197090        59.7859 
  97   0.0000       2.214716        60.2655 
  98   0.0000       2.214716        60.2655 
  99   0.0000       2.293574        62.4113 
 100   0.0000       2.293574        62.4113 
 101   0.0000       2.305263        62.7294 
 102   0.0000       2.349348        63.9290 
 103   0.0000       2.349348        63.9290 
 104   0.0000       2.370463        64.5036 
 105   0.0000       2.370463        64.5036 
 106   0.0000       2.408126        65.5284 
 107   0.0000       2.411498        65.6202 
 108   0.0000       2.413444        65.6731 
 109   0.0000       2.646807        72.0233 
 110   0.0000       2.646807        72.0233 
 111   0.0000       2.703088        73.5548 
 112   0.0000       2.752140        74.8895 
 113   0.0000       2.752140        74.8895 
 114   0.0000       2.822340        76.7998 
 115   0.0000       2.831321        77.0442 
 116   0.0000       2.920935        79.4827 
 117   0.0000       3.179746        86.5253 
 118   0.0000       3.179746        86.5253 
 119   0.0000       3.353069        91.2417 
 120   0.0000       3.353409        91.2509 
 121   0.0000       3.638374        99.0052 
 122   0.0000       3.638374        99.0052 
 123   0.0000       3.642045        99.1051 
 124   0.0000       4.148104       112.8756 
 125   0.0000       6.046429       164.5317 
 126   0.0000       6.219908       169.2523 
 127   0.0000       6.219908       169.2523 
 128   0.0000       6.236057       169.6917 
 129   0.0000       6.237588       169.7334 
 130   0.0000       6.335783       172.4054 
 131   0.0000       6.335783       172.4054 
 132   0.0000       6.525429       177.5659 
 133   0.0000       6.687091       181.9650 
 134   0.0000       6.688224       181.9958 
 135   0.0000       6.697106       182.2375 
 136   0.0000       6.697106       182.2375 
 137   0.0000       6.763958       184.0567 
 138   0.0000       6.771112       184.2513 
 139   0.0000       6.923049       188.3857 
 140   0.0000       6.923049       188.3857 
 141   0.0000       7.081275       192.6913 
 142   0.0000       7.872293       214.2160 

                    ********************************
                    * MULLIKEN POPULATION ANALYSIS *
                    ********************************

--------------------------------------------
MULLIKEN ATOMIC CHARGES AND SPIN POPULATIONS
--------------------------------------------
   0 Cr:    0.324252    4.946325
   1 Cl:   -0.324252    0.053675
Sum of atomic charges         :   -0.0000000
Sum of atomic spin populations:    5.0000000

-----------------------------------------------------
MULLIKEN REDUCED ORBITAL CHARGES AND SPIN POPULATIONS
-----------------------------------------------------
CHARGE
  0 Crs       :     6.621531  s :     6.621531
      pz      :     4.074724  p :    12.208912
      px      :     4.067094
      py      :     4.067094
      dz2     :     0.744878  d :     4.815608
      dxz     :     1.038011
      dyz     :     1.038011
      dx2y2   :     0.997347
      dxy     :     0.997360
      f0      :     0.005670  f :     0.026431
      f+1     :     0.010355
      f-1     :     0.010355
      f+2     :     0.000026
      f-2     :     0.000024
      f+3     :     0.000000
      f-3     :     0.000000
      g0      :     0.000827  g :     0.003266
      g+1     :     0.001207
      g-1     :     0.001207
      g+2     :     0.000012
      g-2     :     0.000012
      g+3     :     0.000000
      g-3     :     0.000000
      g+4     :     0.000000
      g-4     :     0.000000
  1 Cls       :     5.958294  s :     5.958294
      pz      :     3.587524  p :    11.329092
      px      :     3.870784
      py      :     3.870784
      dz2     :     0.006750  d :     0.035506
      dxz     :     0.012338
      dyz     :     0.012338
      dx2y2   :     0.002052
      dxy     :     0.002027
      f0      :    -0.000198  f :     0.001360
      f+1     :     0.000209
      f-1     :     0.000209
      f+2     :     0.000563
      f-2     :     0.000576
      f+3     :     0.000000
      f-3     :     0.000000

SPIN
  0 Crs       :     0.481726  s :     0.481726
      pz      :     0.010788  p :     0.082770
      px      :     0.035991
      py      :     0.035991
      dz2     :     0.545337  d :     4.382413
      dxz     :     0.921185
      dyz     :     0.921185
      dx2y2   :     0.997347
      dxy     :     0.997360
      f0      :    -0.000975  f :     0.000087
      f+1     :     0.000506
      f-1     :     0.000506
      f+2     :     0.000026
      f-2     :     0.000024
      f+3     :     0.000000
      f-3     :     0.000000
      g0      :    -0.000300  g :    -0.000671
      g+1     :    -0.000198
      g-1     :    -0.000198
      g+2     :     0.000012
      g-2     :     0.000012
      g+3     :     0.000000
      g-3     :     0.000000
      g+4     :     0.000000
      g-4     :     0.000000
  1 Cls       :     0.015416  s :     0.015416
      pz      :    -0.055569  p :     0.017986
      px      :     0.036777
      py      :     0.036777
      dz2     :     0.004105  d :     0.020161
      dxz     :     0.005988
      dyz     :     0.005988
      dx2y2   :     0.002052
      dxy     :     0.002027
      f0      :    -0.000527  f :     0.000113
      f+1     :    -0.000250
      f-1     :    -0.000250
      f+2     :     0.000563
      f-2     :     0.000576
      f+3     :    -0.000000
      f-3     :    -0.000000


                     *******************************
                     * LOEWDIN POPULATION ANALYSIS *
                     *******************************

-------------------------------------------
LOEWDIN ATOMIC CHARGES AND SPIN POPULATIONS
-------------------------------------------
   0 Cr:   -0.075450    4.779821
   1 Cl:    0.075450    0.220179

----------------------------------------------------
LOEWDIN REDUCED ORBITAL CHARGES AND SPIN POPULATIONS
----------------------------------------------------
CHARGE
  0 Crs       :     6.420908  s :     6.420908
      pz      :     4.176976  p :    12.351504
      px      :     4.087264
      py      :     4.087264
      dz2     :     0.890966  d :     4.988235
      dxz     :     1.062809
      dyz     :     1.062809
      dx2y2   :     0.985813
      dxy     :     0.985837
      f0      :     0.094092  f :     0.283307
      f+1     :     0.094096
      f-1     :     0.094096
      f+2     :     0.000518
      f-2     :     0.000505
      f+3     :     0.000000
      f-3     :     0.000000
      g0      :     0.011020  g :     0.031495
      g+1     :     0.010214
      g-1     :     0.010214
      g+2     :     0.000023
      g-2     :     0.000023
      g+3     :     0.000000
      g-3     :     0.000000
      g+4     :     0.000000
      g-4     :     0.000000
  1 Cls       :     5.508695  s :     5.508695
      pz      :     3.685725  p :    10.978077
      px      :     3.646176
      py      :     3.646176
      dz2     :     0.140858  d :     0.282175
      dxz     :     0.063408
      dyz     :     0.063408
      dx2y2   :     0.007256
      dxy     :     0.007245
      f0      :     0.070759  f :     0.155602
      f+1     :     0.036032
      f-1     :     0.036032
      f+2     :     0.006389
      f-2     :     0.006390
      f+3     :     0.000000
      f-3     :     0.000000

SPIN
  0 Crs       :     0.452969  s :     0.452969
      pz      :     0.001202  p :     0.123366
      px      :     0.061082
      py      :     0.061082
      dz2     :     0.516641  d :     4.191269
      dxz     :     0.851489
      dyz     :     0.851489
      dx2y2   :     0.985813
      dxy     :     0.985837
      f0      :    -0.001330  f :     0.012331
      f+1     :     0.006319
      f-1     :     0.006319
      f+2     :     0.000518
      f-2     :     0.000505
      f+3     :     0.000000
      f-3     :     0.000000
      g0      :    -0.000740  g :    -0.000114
      g+1     :     0.000289
      g-1     :     0.000289
      g+2     :     0.000023
      g-2     :     0.000023
      g+3     :     0.000000
      g-3     :     0.000000
      g+4     :     0.000000
      g-4     :     0.000000
  1 Cls       :     0.020467  s :     0.020467
      pz      :    -0.000612  p :     0.050798
      px      :     0.025705
      py      :     0.025705
      dz2     :     0.009081  d :     0.097566
      dxz     :     0.036992
      dyz     :     0.036992
      dx2y2   :     0.007256
      dxy     :     0.007245
      f0      :     0.002322  f :     0.051348
      f+1     :     0.018124
      f-1     :     0.018124
      f+2     :     0.006389
      f-2     :     0.006390
      f+3     :    -0.000000
      f-3     :    -0.000000


                      *****************************
                      * MAYER POPULATION ANALYSIS *
                      *****************************

  NA   - Mulliken gross atomic population
  ZA   - Total nuclear charge
  QA   - Mulliken gross atomic charge
  VA   - Mayer's total valence
  BVA  - Mayer's bonded valence
  FA   - Mayer's free valence

  ATOM       NA         ZA         QA         VA         BVA        FA
  0 Cr    23.6757    24.0000     0.3243     5.9802     1.3338     4.6464
  1 Cl    17.3243    17.0000    -0.3243     1.3501     1.3338     0.0163

  Mayer bond orders larger than 0.100000
B(  0-Cr,  1-Cl) :   1.3338 

-------
TIMINGS
-------

Total SCF time: 0 days 0 hours 0 min 2 sec 

Total time                  ....       2.845 sec
Sum of individual times     ....       2.713 sec  ( 95.4%)

Fock matrix formation       ....       2.327 sec  ( 81.8%)
  Split-RI-J                ....       1.947 sec  ( 83.7% of F)
  XC integration            ....       0.300 sec  ( 12.9% of F)
    Basis function eval.    ....       0.035 sec  ( 11.6% of XC)
    Density eval.           ....       0.042 sec  ( 13.9% of XC)
    XC-Functional eval.     ....       0.009 sec  (  3.2% of XC)
    XC-Potential eval.      ....       0.127 sec  ( 42.5% of XC)
Diagonalization             ....       0.081 sec  (  2.9%)
Density matrix formation    ....       0.010 sec  (  0.4%)
Population analysis         ....       0.007 sec  (  0.2%)
Initial guess               ....       0.120 sec  (  4.2%)
Orbital Transformation      ....       0.000 sec  (  0.0%)
Orbital Orthonormalization  ....       0.000 sec  (  0.0%)
DIIS solution               ....       0.028 sec  (  1.0%)
Grid generation             ....       0.140 sec  (  4.9%)


-------------------------------------------------------------------------------
                          DFT DISPERSION CORRECTION                            
                                                                               
                              DFTD3 V3.1  Rev 1                                
                          USING Becke-Johnson damping                          
-------------------------------------------------------------------------------
The TPSS functional is recognized
Active option DFTDOPT                   ...         4   

molecular C6(AA) [au] = 778.055275 


            DFT-D V3
 parameters
 s6 scaling factor         :     1.0000 
 a1 scaling factor         :     0.4535 
 s8 scaling factor         :     1.9435 
 a2 scaling factor         :     4.4752 
 ad hoc parameters k1-k3   :    16.0000     1.3333    -4.0000 

 Edisp/kcal,au: -1.088794013252  -0.001735103520 
 E6   /kcal   :  -0.378356112 
 E8   /kcal   :  -0.710437901 
 % E8         :  65.249982299 

-------------------------   ----------------
Dispersion correction           -0.001735104
-------------------------   ----------------


-------------------------   --------------------
FINAL SINGLE POINT ENERGY     -1504.798956146922
-------------------------   --------------------



           ************************************************************
           *        Program running with 24 parallel MPI-processes    *
           *              working on a common directory               *
           ************************************************************
------------------------------------------------------------------------------
                         ORCA SCF GRADIENT CALCULATION
------------------------------------------------------------------------------

Gradient of the Kohn-Sham DFT energy:
Kohn-Sham wavefunction type      ... UKS
Hartree-Fock exchange scaling    ...    0.000
Number of operators              ...    2
Number of atoms                  ...    2
Basis set dimensions             ...  143
Integral neglect threshold       ... 2.5e-11
Integral primitive cutoff        ... 2.5e-12

Nuclear repulsion gradient       ... done
One Electron Gradient            ... done
Pre-screening matrix             ... done
RI-J gradient                    ... done
Exchange-correlation gradient    ... done
Dispersion correction            ... done

------------------
CARTESIAN GRADIENT
------------------

   1   Cr  :   -0.000000000    0.000000006    0.072363593
   2   Cl  :    0.000000001   -0.000000005   -0.073060923

Difference to translation invariance:
           :    0.0000000013    0.0000000016   -0.0006973299

Norm of the cartesian gradient     ...    0.1028318436
RMS gradient                       ...    0.0419809243
MAX gradient                       ...    0.0730609229

-------
TIMINGS
-------

Total SCF gradient time            ...        4.528 sec

One electron gradient       ....       0.054 sec  (  1.2%)
Prescreening matrices       ....       3.631 sec  ( 80.2%)
RI-J Coulomb gradient       ....       0.257 sec  (  5.7%)
XC gradient                 ....       0.052 sec  (  1.2%)
------------------------------------------------------------------------------
                         ORCA GEOMETRY RELAXATION STEP
------------------------------------------------------------------------------

Reading the OPT-File                    .... done
Getting information on internals        .... done
Copying old internal coords+grads       .... done
Making the new internal coordinates     .... (new redundants).... done
Validating the new internal coordinates .... (new redundants).... done
Calculating the B-matrix                .... done
Calculating the G,G- and P matrices     .... done
Transforming gradient to internals      .... done
Projecting the internal gradient        .... done
Number of atoms                         ....   2
Number of internal coordinates          ....   1
Current Energy                          .... -1504.798956147 Eh
Current gradient norm                   ....     0.102831844 Eh/bohr
Maximum allowed component of the step   ....  0.300
Current trust radius                    ....  0.300
Evaluating the initial hessian          ....  (Almloef) done
Projecting the Hessian                  .... done
Forming the augmented Hessian           .... done
Diagonalizing the augmented Hessian     .... done
Last element of RFO vector              ....  0.998846184
Lowest eigenvalues of augmented Hessian:
 -0.003495964
Length of the computed step             ....  0.048079429
The final length of the internal step   ....  0.048079429
Converting the step to cartesian space:
 Initial RMS(Int)=    0.0480794291
Transforming coordinates:
 Iter   0:  RMS(Cart)=    0.0138793357 RMS(Int)=    0.0480794291
 Iter   1:  RMS(Cart)=    0.0000000000 RMS(Int)=    0.0000000000
done
Storing new coordinates                 .... done

                                .--------------------.
          ----------------------|Geometry convergence|-------------------------
          Item                value                   Tolerance       Converged
          ---------------------------------------------------------------------
          RMS gradient        0.0727122580            0.0001000000      NO
          MAX gradient        0.0727122580            0.0003000000      NO
          RMS step            0.0480794291            0.0020000000      NO
          MAX step            0.0480794291            0.0040000000      NO
          ........................................................
          Max(Bonds)      0.0254      Max(Angles)    0.00
          Max(Dihed)        0.00      Max(Improp)    0.00
          ---------------------------------------------------------------------

The optimization has not yet converged - more geometry cycles are needed


    ---------------------------------------------------------------------------
                         Redundant Internal Coordinates
                            (Angstroem and degrees)

        Definition                    Value    dE/dq     Step     New-Value
    ----------------------------------------------------------------------------
     1. B(Cl  1,Cr  0)                2.0000 -0.072712  0.0254    2.0254   
    ----------------------------------------------------------------------------

         *************************************************************
         *                GEOMETRY OPTIMIZATION CYCLE   2            *
         *************************************************************
---------------------------------
CARTESIAN COORDINATES (ANGSTROEM)
---------------------------------
  Cr     0.000000    0.000000   -0.012721
  Cl     0.000000    0.000000    2.012721

----------------------------
CARTESIAN COORDINATES (A.U.)
----------------------------
  NO LB      ZA    FRAG     MASS         X           Y           Z
   0 Cr   24.0000    0    52.000    0.000000    0.000000   -0.024040
   1 Cl   17.0000    0    35.453    0.000000    0.000000    3.803492

--------------------------------
INTERNAL COORDINATES (ANGSTROEM)
--------------------------------
 Cr     0   0   0     0.000000000000     0.00000000     0.00000000
 Cl     1   0   0     2.025442538060     0.00000000     0.00000000

---------------------------
INTERNAL COORDINATES (A.U.)
---------------------------
 Cr     0   0   0     0.000000000000     0.00000000     0.00000000
 Cl     1   0   0     3.827531696928     0.00000000     0.00000000



           ************************************************************
           *        Program running with 24 parallel MPI-processes    *
           *              working on a common directory               *
           ************************************************************
 One Electron integrals                  ... done
 Pre-screening matrix                    ... done


           ************************************************************
           *        Program running with 24 parallel MPI-processes    *
           *              working on a common directory               *
           ************************************************************

Diagonalization of the overlap matrix:
Smallest eigenvalue                        ... 9.122e-05
Time for diagonalization                   ...    0.005 sec
Threshold for overlap eigenvalues          ... 1.000e-08
Number of eigenvalues below threshold      ... 0
Time for construction of square roots      ...    0.002 sec
Total time needed                          ...    0.008 sec

-------------------
DFT GRID GENERATION
-------------------

General Integration Accuracy     IntAcc      ...  4.340
Radial Grid Type                 RadialGrid  ... Gauss-Chebyshev
Angular Grid (max. acc.)         AngularGrid ... Lebedev-110
Angular grid pruning method      GridPruning ... 3 (G Style)
Weight generation scheme         WeightScheme... Becke
Basis function cutoff            BFCut       ...    1.0000e-11
Integration weight cutoff        WCut        ...    1.0000e-14
Grids for H and He will be reduced by one unit

# of grid points (after initial pruning)     ...   4816 (   0.0 sec)
# of grid points (after weights+screening)   ...   4791 (   0.0 sec)
nearest neighbour list constructed           ...    0.0 sec
Grid point re-assignment to atoms done       ...    0.0 sec
Grid point division into batches done        ...    0.0 sec
Reduced shell lists constructed in    0.0 sec

Total number of grid points                  ...     4791
Total number of batches                      ...       76
Average number of points per batch           ...       63
Average number of grid points per atom       ...     2396
Average number of shells per batch           ...    23.60 (57.56%)
Average number of basis functions per batch  ...    77.20 (53.99%)
Average number of large shells per batch     ...    17.60 (74.58%)
Average number of large basis fcns per batch ...    51.20 (66.32%)
Maximum spatial batch extension              ...  18.79, 28.73, 16.15 au
Average spatial batch extension              ...   0.91,  1.26,  0.85 au

Time for grid setup =    0.021 sec

--------------
SCF ITERATIONS
--------------
ITER       Energy         Delta-E        Max-DP      RMS-DP      [F,P]     Damp
               ***  Starting incremental Fock matrix formation  ***
  0  -1504.8013853901   0.000000000000 0.00174296  0.00003301  0.0074981 0.7000
  1  -1504.8014143973  -0.000029007218 0.00123078  0.00002607  0.0052480 0.7000
                               ***Turning on DIIS***
  2  -1504.8014360912  -0.000021693876 0.00272975  0.00006572  0.0036687 0.0000
  3  -1504.8014862162  -0.000050125021 0.00213969  0.00002830  0.0008664 0.0000
  4  -1504.8014862939  -0.000000077654 0.00183608  0.00001589  0.0009715 0.0000
  5  -1504.8014866494  -0.000000355535 0.00145224  0.00001779  0.0008147 0.0000
  6  -1504.8014883218  -0.000001672417 0.00029311  0.00000398  0.0002274 0.0000
  7  -1504.8014884721  -0.000000150251 0.00007349  0.00000075  0.0000273 0.0000
  8  -1504.8014884428   0.000000029296 0.00001297  0.00000029  0.0000180 0.0000
  9  -1504.8014884644  -0.000000021611 0.00000757  0.00000009  0.0000049 0.0000
 10  -1504.8014884387   0.000000025711 0.00000199  0.00000003  0.0000012 0.0000
                            ***DIIS convergence achieved***

               *****************************************************
               *                     SUCCESS                       *
               *           SCF CONVERGED AFTER  11 CYCLES          *
               *****************************************************

Setting up the final grid:

General Integration Accuracy     IntAcc      ...  4.670
Radial Grid Type                 RadialGrid  ... Gauss-Chebyshev
Angular Grid (max. acc.)         AngularGrid ... Lebedev-302
Angular grid pruning method      GridPruning ... 3 (G Style)
Weight generation scheme         WeightScheme... Becke
Basis function cutoff            BFCut       ...    1.0000e-11
Integration weight cutoff        WCut        ...    1.0000e-14
Grids for H and He will be reduced by one unit

# of grid points (after initial pruning)     ...  16402 (   0.0 sec)
# of grid points (after weights+screening)   ...  16373 (   0.0 sec)
nearest neighbour list constructed           ...    0.0 sec
Grid point re-assignment to atoms done       ...    0.0 sec
Grid point division into batches done        ...    0.1 sec
Reduced shell lists constructed in    0.1 sec

Total number of grid points                  ...    16373
Total number of batches                      ...      256
Average number of points per batch           ...       63
Average number of grid points per atom       ...     8186
Average number of shells per batch           ...    15.92 (38.82%)
Average number of basis functions per batch  ...    41.75 (29.20%)
Average number of large shells per batch     ...     9.00 (56.54%)
Average number of large basis fcns per batch ...    25.33 (60.68%)
Maximum spatial batch extension              ...  24.49, 24.19, 17.58 au
Average spatial batch extension              ...   0.85,  0.84,  0.65 au

Final grid set up in    0.1 sec
Final integration                            ... done (   0.1 sec)
Change in XC energy                          ...     0.001122993
Integrated number of electrons               ...    40.999996409
Previous integrated no of electrons          ...    40.999852350
Total Energy       :        -1504.80036541 Eh          -40947.69968 eV
  Last Energy change         ...    3.9007e-08  Tolerance :   1.0000e-08
  Last MAX-Density change    ...    3.1091e-06  Tolerance :   1.0000e-07
             **** THE GBW FILE WAS UPDATED (21_CrCl.gbw) ****
             **** DENSITY FILE WAS UPDATED (21_CrCl.scfp) ****
             **** ENERGY FILE WAS UPDATED (21_CrCl.en.tmp) ****
----------------------
UHF SPIN CONTAMINATION
----------------------

Warning: in a DFT calculation there is little theoretical justification to 
         calculate <S**2> as in Hartree-Fock theory. We will do it anyways
         but you should keep in mind that the values have only limited relevance

Expectation value of <S**2>     :     8.765170
Ideal value S*(S+1) for S=2.5   :     8.750000
Deviation                       :     0.015170

             **** THE GBW FILE WAS UPDATED (21_CrCl.gbw) ****
             **** DENSITY FILE WAS UPDATED (21_CrCl.scfp) ****
Total SCF time: 0 days 0 hours 0 min 2 sec 


-------------------------------------------------------------------------------
                          DFT DISPERSION CORRECTION                            
                                                                               
                              DFTD3 V3.1  Rev 1                                
                          USING Becke-Johnson damping                          
-------------------------------------------------------------------------------
-------------------------   ----------------
Dispersion correction           -0.001735256
-------------------------   ----------------


-------------------------   --------------------
FINAL SINGLE POINT ENERGY     -1504.802100663115
-------------------------   --------------------



           ************************************************************
           *        Program running with 24 parallel MPI-processes    *
           *              working on a common directory               *
           ************************************************************
------------------------------------------------------------------------------
                         ORCA SCF GRADIENT CALCULATION
------------------------------------------------------------------------------

Gradient of the Kohn-Sham DFT energy:
Kohn-Sham wavefunction type      ... UKS
Hartree-Fock exchange scaling    ...    0.000
Number of operators              ...    2
Number of atoms                  ...    2
Basis set dimensions             ...  143
Integral neglect threshold       ... 2.5e-11
Integral primitive cutoff        ... 2.5e-12

Nuclear repulsion gradient       ... done
One Electron Gradient            ... done
Pre-screening matrix             ... done
RI-J gradient                    ... done
Exchange-correlation gradient    ... done
Dispersion correction            ... done

------------------
CARTESIAN GRADIENT
------------------

   1   Cr  :    0.000000005   -0.000000009    0.059351183
   2   Cl  :    0.000000004   -0.000000002   -0.060256604

Difference to translation invariance:
           :    0.0000000097   -0.0000000106   -0.0009054207

Norm of the cartesian gradient     ...    0.0845779007
RMS gradient                       ...    0.0345287834
MAX gradient                       ...    0.0602566041

-------
TIMINGS
-------

Total SCF gradient time            ...        4.559 sec

One electron gradient       ....       0.068 sec  (  1.5%)
Prescreening matrices       ....       3.640 sec  ( 79.8%)
RI-J Coulomb gradient       ....       0.256 sec  (  5.6%)
XC gradient                 ....       0.050 sec  (  1.1%)
------------------------------------------------------------------------------
                         ORCA GEOMETRY RELAXATION STEP
------------------------------------------------------------------------------

Reading the OPT-File                    .... done
Getting information on internals        .... done
Copying old internal coords+grads       .... done
Making the new internal coordinates     .... (new redundants).... done
Validating the new internal coordinates .... (new redundants).... done
Calculating the B-matrix                .... done
Calculating the G,G- and P matrices     .... done
Transforming gradient to internals      .... done
Projecting the internal gradient        .... done
Number of atoms                         ....   2
Number of internal coordinates          ....   1
Current Energy                          .... -1504.802100663 Eh
Current gradient norm                   ....     0.084577901 Eh/bohr
Maximum allowed component of the step   ....  0.300
Current trust radius                    ....  0.300
Updating the Hessian (BFGS)             .... done
Forming the augmented Hessian           .... done
Diagonalizing the augmented Hessian     .... done
Last element of RFO vector              ....  0.978124073
Lowest eigenvalues of augmented Hessian:
 -0.012718782
Length of the computed step             ....  0.212674810
The final length of the internal step   ....  0.212674810
Converting the step to cartesian space:
 Initial RMS(Int)=    0.2126748096
Transforming coordinates:
 Iter   0:  RMS(Cart)=    0.0577350269 RMS(Int)=    0.2000000000
 Iter   1:  RMS(Cart)=    0.0036589024 RMS(Int)=    0.0126748096
 Iter   2:  RMS(Cart)=    0.0000000000 RMS(Int)=    0.0000000000
done
Storing new coordinates                 .... done

                                .--------------------.
          ----------------------|Geometry convergence|-------------------------
          Item                value                   Tolerance       Converged
          ---------------------------------------------------------------------
          Energy change      -0.0031445162            0.0000050000      NO
          RMS gradient        0.0598038937            0.0001000000      NO
          MAX gradient        0.0598038937            0.0003000000      NO
          RMS step            0.2126748096            0.0020000000      NO
          MAX step            0.2126748096            0.0040000000      NO
          ........................................................
          Max(Bonds)      0.1125      Max(Angles)    0.00
          Max(Dihed)        0.00      Max(Improp)    0.00
          ---------------------------------------------------------------------

The optimization has not yet converged - more geometry cycles are needed


    ---------------------------------------------------------------------------
                         Redundant Internal Coordinates
                            (Angstroem and degrees)

        Definition                    Value    dE/dq     Step     New-Value
    ----------------------------------------------------------------------------
     1. B(Cl  1,Cr  0)                2.0254 -0.059804  0.1125    2.1380   
    ----------------------------------------------------------------------------

         *************************************************************
         *                GEOMETRY OPTIMIZATION CYCLE   3            *
         *************************************************************
---------------------------------
CARTESIAN COORDINATES (ANGSTROEM)
---------------------------------
  Cr     0.000000    0.000000   -0.068993
  Cl     0.000000    0.000000    2.068993

----------------------------
CARTESIAN COORDINATES (A.U.)
----------------------------
  NO LB      ZA    FRAG     MASS         X           Y           Z
   0 Cr   24.0000    0    52.000    0.000000    0.000000   -0.130377
   1 Cl   17.0000    0    35.453    0.000000    0.000000    3.909829

--------------------------------
INTERNAL COORDINATES (ANGSTROEM)
--------------------------------
 Cr     0   0   0     0.000000000000     0.00000000     0.00000000
 Cl     1   0   0     2.137985200078     0.00000000     0.00000000

---------------------------
INTERNAL COORDINATES (A.U.)
---------------------------
 Cr     0   0   0     0.000000000000     0.00000000     0.00000000
 Cl     1   0   0     4.040206506525     0.00000000     0.00000000



           ************************************************************
           *        Program running with 24 parallel MPI-processes    *
           *              working on a common directory               *
           ************************************************************
 One Electron integrals                  ... done
 Pre-screening matrix                    ... done


           ************************************************************
           *        Program running with 24 parallel MPI-processes    *
           *              working on a common directory               *
           ************************************************************

Diagonalization of the overlap matrix:
Smallest eigenvalue                        ... 9.492e-05
Time for diagonalization                   ...    0.004 sec
Threshold for overlap eigenvalues          ... 1.000e-08
Number of eigenvalues below threshold      ... 0
Time for construction of square roots      ...    0.002 sec
Total time needed                          ...    0.006 sec

-------------------
DFT GRID GENERATION
-------------------

General Integration Accuracy     IntAcc      ...  4.340
Radial Grid Type                 RadialGrid  ... Gauss-Chebyshev
Angular Grid (max. acc.)         AngularGrid ... Lebedev-110
Angular grid pruning method      GridPruning ... 3 (G Style)
Weight generation scheme         WeightScheme... Becke
Basis function cutoff            BFCut       ...    1.0000e-11
Integration weight cutoff        WCut        ...    1.0000e-14
Grids for H and He will be reduced by one unit

# of grid points (after initial pruning)     ...   4816 (   0.0 sec)
# of grid points (after weights+screening)   ...   4791 (   0.0 sec)
nearest neighbour list constructed           ...    0.0 sec
Grid point re-assignment to atoms done       ...    0.0 sec
Grid point division into batches done        ...    0.0 sec
Reduced shell lists constructed in    0.0 sec

Total number of grid points                  ...     4791
Total number of batches                      ...       76
Average number of points per batch           ...       63
Average number of grid points per atom       ...     2396
Average number of shells per batch           ...    23.60 (57.56%)
Average number of basis functions per batch  ...    77.20 (53.99%)
Average number of large shells per batch     ...    17.60 (74.58%)
Average number of large basis fcns per batch ...    51.20 (66.32%)
Maximum spatial batch extension              ...  18.98, 28.73, 16.15 au
Average spatial batch extension              ...   0.92,  1.26,  0.85 au

Time for grid setup =    0.021 sec

--------------
SCF ITERATIONS
--------------
ITER       Energy         Delta-E        Max-DP      RMS-DP      [F,P]     Damp
               ***  Starting incremental Fock matrix formation  ***
  0  -1504.8073554839   0.000000000000 0.00633510  0.00013452  0.0352031 0.7000
  1  -1504.8078015004  -0.000446016493 0.00530440  0.00011311  0.0246447 0.7000
                               ***Turning on DIIS***
  2  -1504.8081364332  -0.000334932872 0.01274415  0.00029451  0.0172323 0.0000
  3  -1504.8089144379  -0.000778004706 0.00454662  0.00008883  0.0033410 0.0000
  4  -1504.8089407635  -0.000026325574 0.00125076  0.00001826  0.0015254 0.0000
  5  -1504.8089488727  -0.000008109156 0.00567784  0.00004100  0.0004316 0.0000
  6  -1504.8089493532  -0.000000480487 0.00055422  0.00001061  0.0011990 0.0000
  7  -1504.8089513458  -0.000001992668 0.00126493  0.00000949  0.0006541 0.0000
  8  -1504.8089524831  -0.000001137299 0.00057674  0.00000424  0.0000640 0.0000
  9  -1504.8089523075   0.000000175651 0.00007878  0.00000137  0.0001394 0.0000
 10  -1504.8089523526  -0.000000045146 0.00001579  0.00000025  0.0000392 0.0000
 11  -1504.8089523449   0.000000007767 0.00001058  0.00000022  0.0000190 0.0000
 12  -1504.8089523274   0.000000017480 0.00000831  0.00000010  0.0000067 0.0000
 13  -1504.8089522614   0.000000066002 0.00000391  0.00000005  0.0000023 0.0000
                            ***DIIS convergence achieved***

               *****************************************************
               *                     SUCCESS                       *
               *           SCF CONVERGED AFTER  14 CYCLES          *
               *****************************************************

Setting up the final grid:

General Integration Accuracy     IntAcc      ...  4.670
Radial Grid Type                 RadialGrid  ... Gauss-Chebyshev
Angular Grid (max. acc.)         AngularGrid ... Lebedev-302
Angular grid pruning method      GridPruning ... 3 (G Style)
Weight generation scheme         WeightScheme... Becke
Basis function cutoff            BFCut       ...    1.0000e-11
Integration weight cutoff        WCut        ...    1.0000e-14
Grids for H and He will be reduced by one unit

# of grid points (after initial pruning)     ...  16402 (   0.0 sec)
# of grid points (after weights+screening)   ...  16375 (   0.0 sec)
nearest neighbour list constructed           ...    0.0 sec
Grid point re-assignment to atoms done       ...    0.0 sec
Grid point division into batches done        ...    0.1 sec
Reduced shell lists constructed in    0.1 sec

Total number of grid points                  ...    16375
Total number of batches                      ...      257
Average number of points per batch           ...       63
Average number of grid points per atom       ...     8188
Average number of shells per batch           ...    15.92 (38.82%)
Average number of basis functions per batch  ...    41.75 (29.20%)
Average number of large shells per batch     ...     9.00 (56.54%)
Average number of large basis fcns per batch ...    25.33 (60.68%)
Maximum spatial batch extension              ...  24.49, 24.19, 18.13 au
Average spatial batch extension              ...   0.85,  0.83,  0.66 au

Final grid set up in    0.1 sec
Final integration                            ... done (   0.1 sec)
Change in XC energy                          ...     0.000960885
Integrated number of electrons               ...    40.999999857
Previous integrated no of electrons          ...    40.999935950
Total Energy       :        -1504.80799139 Eh          -40947.90720 eV
  Last Energy change         ...   -1.4471e-08  Tolerance :   1.0000e-08
  Last MAX-Density change    ...    5.9673e-07  Tolerance :   1.0000e-07
             **** THE GBW FILE WAS UPDATED (21_CrCl.gbw) ****
             **** DENSITY FILE WAS UPDATED (21_CrCl.scfp) ****
             **** ENERGY FILE WAS UPDATED (21_CrCl.en.tmp) ****
----------------------
UHF SPIN CONTAMINATION
----------------------

Warning: in a DFT calculation there is little theoretical justification to 
         calculate <S**2> as in Hartree-Fock theory. We will do it anyways
         but you should keep in mind that the values have only limited relevance

Expectation value of <S**2>     :     8.766917
Ideal value S*(S+1) for S=2.5   :     8.750000
Deviation                       :     0.016917

             **** THE GBW FILE WAS UPDATED (21_CrCl.gbw) ****
             **** DENSITY FILE WAS UPDATED (21_CrCl.scfp) ****
Total SCF time: 0 days 0 hours 0 min 3 sec 


-------------------------------------------------------------------------------
                          DFT DISPERSION CORRECTION                            
                                                                               
                              DFTD3 V3.1  Rev 1                                
                          USING Becke-Johnson damping                          
-------------------------------------------------------------------------------
-------------------------   ----------------
Dispersion correction           -0.001739577
-------------------------   ----------------


-------------------------   --------------------
FINAL SINGLE POINT ENERGY     -1504.809730967212
-------------------------   --------------------



           ************************************************************
           *        Program running with 24 parallel MPI-processes    *
           *              working on a common directory               *
           ************************************************************
------------------------------------------------------------------------------
                         ORCA SCF GRADIENT CALCULATION
------------------------------------------------------------------------------

Gradient of the Kohn-Sham DFT energy:
Kohn-Sham wavefunction type      ... UKS
Hartree-Fock exchange scaling    ...    0.000
Number of operators              ...    2
Number of atoms                  ...    2
Basis set dimensions             ...  143
Integral neglect threshold       ... 2.5e-11
Integral primitive cutoff        ... 2.5e-12

Nuclear repulsion gradient       ... done
One Electron Gradient            ... done
Pre-screening matrix             ... done
RI-J gradient                    ... done
Exchange-correlation gradient    ... done
Dispersion correction            ... done

------------------
CARTESIAN GRADIENT
------------------

   1   Cr  :   -0.000000003    0.000000002    0.015710405
   2   Cl  :   -0.000000000   -0.000000000   -0.016281655

Difference to translation invariance:
           :   -0.0000000035    0.0000000022   -0.0005712494

Norm of the cartesian gradient     ...    0.0226254089
RMS gradient                       ...    0.0092367845
MAX gradient                       ...    0.0162816549

-------
TIMINGS
-------

Total SCF gradient time            ...        4.541 sec

One electron gradient       ....       0.047 sec  (  1.0%)
Prescreening matrices       ....       3.619 sec  ( 79.7%)
RI-J Coulomb gradient       ....       0.292 sec  (  6.4%)
XC gradient                 ....       0.050 sec  (  1.1%)
------------------------------------------------------------------------------
                         ORCA GEOMETRY RELAXATION STEP
------------------------------------------------------------------------------

[...]
 113   0.0000       2.763759        75.2057 
 114   0.0000       2.828750        76.9742 
 115   0.0000       2.830119        77.0115 
 116   0.0000       2.853810        77.6561 
 117   0.0000       3.003884        81.7398 
 118   0.0000       3.003884        81.7398 
 119   0.0000       3.208351        87.3037 
 120   0.0000       3.208805        87.3160 
 121   0.0000       3.324884        90.4747 
 122   0.0000       3.447893        93.8219 
 123   0.0000       3.447893        93.8219 
 124   0.0000       4.183833       113.8479 
 125   0.0000       5.964244       162.2953 
 126   0.0000       6.035657       164.2386 
 127   0.0000       6.035657       164.2386 
 128   0.0000       6.037994       164.3022 
 129   0.0000       6.038571       164.3179 
 130   0.0000       6.103971       166.0975 
 131   0.0000       6.103971       166.0975 
 132   0.0000       6.336640       172.4287 
 133   0.0000       6.556902       178.4224 
 134   0.0000       6.557848       178.4481 
 135   0.0000       6.558094       178.4548 
 136   0.0000       6.558094       178.4548 
 137   0.0000       6.607335       179.7947 
 138   0.0000       6.614072       179.9781 
 139   0.0000       6.749016       183.6501 
 140   0.0000       6.749016       183.6501 
 141   0.0000       6.886928       187.4029 
 142   0.0000       7.559588       205.7068 

                 SPIN DOWN ORBITALS
  NO   OCC          E(Eh)            E(eV) 
   0   1.0000    -214.924051     -5848.3808 
   1   1.0000    -100.970855     -2747.5566 
   2   1.0000     -24.271079      -660.4496 
   3   1.0000     -20.586713      -560.1929 
   4   1.0000     -20.580363      -560.0201 
   5   1.0000     -20.580363      -560.0201 
   6   1.0000      -9.198225      -250.2964 
   7   1.0000      -6.975682      -189.8179 
   8   1.0000      -6.971541      -189.7053 
   9   1.0000      -6.971541      -189.7053 
  10   1.0000      -2.632415       -71.6317 
  11   1.0000      -1.616783       -43.9949 
  12   1.0000      -1.599218       -43.5169 
  13   1.0000      -1.599218       -43.5169 
  14   1.0000      -0.701759       -19.0958 
  15   1.0000      -0.293387        -7.9835 
  16   1.0000      -0.257921        -7.0184 
  17   1.0000      -0.257921        -7.0184 
  18   0.0000      -0.096985        -2.6391 
  19   0.0000      -0.050681        -1.3791 
  20   0.0000      -0.045131        -1.2281 
  21   0.0000      -0.045131        -1.2281 
  22   0.0000      -0.041740        -1.1358 
  23   0.0000      -0.041469        -1.1284 
  24   0.0000       0.000809         0.0220 
  25   0.0000       0.000809         0.0220 
  26   0.0000       0.013000         0.3537 
  27   0.0000       0.016528         0.4497 
  28   0.0000       0.038233         1.0404 
  29   0.0000       0.038233         1.0404 
  30   0.0000       0.059872         1.6292 
  31   0.0000       0.059872         1.6292 
  32   0.0000       0.060104         1.6355 
  33   0.0000       0.061029         1.6607 
  34   0.0000       0.061146         1.6639 
  35   0.0000       0.069467         1.8903 
  36   0.0000       0.125619         3.4183 
  37   0.0000       0.130127         3.5409 
  38   0.0000       0.130128         3.5409 
  39   0.0000       0.138335         3.7643 
  40   0.0000       0.170549         4.6409 
  41   0.0000       0.170549         4.6409 
  42   0.0000       0.199999         5.4423 
  43   0.0000       0.214373         5.8334 
  44   0.0000       0.214939         5.8488 
  45   0.0000       0.227708         6.1962 
  46   0.0000       0.227708         6.1962 
  47   0.0000       0.234202         6.3730 
  48   0.0000       0.271539         7.3890 
  49   0.0000       0.271881         7.3983 
  50   0.0000       0.317936         8.6515 
  51   0.0000       0.347691         9.4612 
  52   0.0000       0.347691         9.4612 
  53   0.0000       0.383821        10.4443 
  54   0.0000       0.538798        14.6614 
  55   0.0000       0.538798        14.6614 
  56   0.0000       0.577998        15.7281 
  57   0.0000       0.577998        15.7281 
  58   0.0000       0.590799        16.0765 
  59   0.0000       0.592925        16.1343 
  60   0.0000       0.627389        17.0721 
  61   0.0000       0.627389        17.0721 
  62   0.0000       0.635258        17.2863 
  63   0.0000       0.659226        17.9385 
  64   0.0000       0.702117        19.1056 
  65   0.0000       0.702117        19.1056 
  66   0.0000       0.734463        19.9858 
  67   0.0000       0.735719        20.0199 
  68   0.0000       0.763332        20.7713 
  69   0.0000       0.763332        20.7713 
  70   0.0000       0.791182        21.5292 
  71   0.0000       0.803410        21.8619 
  72   0.0000       0.842842        22.9349 
  73   0.0000       0.843980        22.9659 
  74   0.0000       0.941992        25.6329 
  75   0.0000       0.941992        25.6329 
  76   0.0000       0.965988        26.2859 
  77   0.0000       1.014908        27.6170 
  78   0.0000       1.014908        27.6170 
  79   0.0000       1.142006        31.0756 
  80   0.0000       1.148004        31.2388 
  81   0.0000       1.148560        31.2539 
  82   0.0000       1.440755        39.2049 
  83   0.0000       1.440755        39.2049 
  84   0.0000       1.656103        45.0649 
  85   0.0000       1.786445        48.6117 
  86   0.0000       1.821651        49.5697 
  87   0.0000       1.821651        49.5697 
  88   0.0000       1.834706        49.9249 
  89   0.0000       1.836867        49.9837 
  90   0.0000       1.889386        51.4128 
  91   0.0000       1.889386        51.4128 
  92   0.0000       1.966451        53.5099 
  93   0.0000       2.177425        59.2507 
  94   0.0000       2.181740        59.3682 
  95   0.0000       2.187183        59.5163 
  96   0.0000       2.189714        59.5851 
  97   0.0000       2.200828        59.8876 
  98   0.0000       2.200828        59.8876 
  99   0.0000       2.249609        61.2150 
 100   0.0000       2.249609        61.2150 
 101   0.0000       2.276107        61.9360 
 102   0.0000       2.331589        63.4458 
 103   0.0000       2.331589        63.4458 
 104   0.0000       2.356404        64.1210 
 105   0.0000       2.357737        64.1573 
 106   0.0000       2.373350        64.5821 
 107   0.0000       2.373350        64.5821 
 108   0.0000       2.419398        65.8352 
 109   0.0000       2.607723        70.9597 
 110   0.0000       2.645213        71.9799 
 111   0.0000       2.645213        71.9799 
 112   0.0000       2.765895        75.2638 
 113   0.0000       2.765895        75.2638 
 114   0.0000       2.830662        77.0262 
 115   0.0000       2.831455        77.0478 
 116   0.0000       2.861725        77.8715 
 117   0.0000       3.021356        82.2153 
 118   0.0000       3.021356        82.2153 
 119   0.0000       3.341371        90.9233 
 120   0.0000       3.341570        90.9287 
 121   0.0000       3.383222        92.0622 
 122   0.0000       3.569995        97.1445 
 123   0.0000       3.569995        97.1445 
 124   0.0000       4.270451       116.2049 
 125   0.0000       5.985658       162.8780 
 126   0.0000       6.215599       169.1350 
 127   0.0000       6.215599       169.1350 
 128   0.0000       6.229562       169.5150 
 129   0.0000       6.229924       169.5249 
 130   0.0000       6.279319       170.8690 
 131   0.0000       6.279319       170.8690 
 132   0.0000       6.481462       176.3695 
 133   0.0000       6.681443       181.8113 
 134   0.0000       6.682158       181.8308 
 135   0.0000       6.686935       181.9607 
 136   0.0000       6.686935       181.9607 
 137   0.0000       6.729496       183.1189 
 138   0.0000       6.734884       183.2655 
 139   0.0000       6.862058       186.7261 
 140   0.0000       6.862058       186.7261 
 141   0.0000       6.997165       190.4025 
 142   0.0000       7.712922       209.8793 

                    ********************************
                    * MULLIKEN POPULATION ANALYSIS *
                    ********************************

--------------------------------------------
MULLIKEN ATOMIC CHARGES AND SPIN POPULATIONS
--------------------------------------------
   0 Cr:    0.347863    5.063141
   1 Cl:   -0.347863   -0.063141
Sum of atomic charges         :   -0.0000000
Sum of atomic spin populations:    5.0000000

-----------------------------------------------------
MULLIKEN REDUCED ORBITAL CHARGES AND SPIN POPULATIONS
-----------------------------------------------------
CHARGE
  0 Crs       :     6.645041  s :     6.645041
      pz      :     4.085187  p :    12.187473
      px      :     4.051143
      py      :     4.051143
      dz2     :     0.750144  d :     4.796186
      dxz     :     1.024312
      dyz     :     1.024312
      dx2y2   :     0.998737
      dxy     :     0.998680
      f0      :     0.007543  f :     0.021401
      f+1     :     0.006811
      f-1     :     0.006811
      f+2     :     0.000118
      f-2     :     0.000117
      f+3     :     0.000000
      f-3     :     0.000000
      g0      :     0.000653  g :     0.002036
      g+1     :     0.000689
      g-1     :     0.000689
      g+2     :     0.000003
      g-2     :     0.000003
      g+3     :     0.000000
      g-3     :     0.000000
      g+4     :     0.000000
      g-4     :     0.000000
  1 Cls       :     5.933134  s :     5.933134
      pz      :     3.573791  p :    11.390295
      px      :     3.908252
      py      :     3.908252
      dz2     :     0.004730  d :     0.022913
      dxz     :     0.008244
      dyz     :     0.008244
      dx2y2   :     0.000831
      dxy     :     0.000863
      f0      :    -0.000222  f :     0.001521
      f+1     :     0.000548
      f-1     :     0.000548
      f+2     :     0.000311
      f-2     :     0.000337
      f+3     :     0.000000
      f-3     :     0.000000

SPIN
  0 Crs       :     0.496874  s :     0.496874
      pz      :     0.011966  p :     0.066398
      px      :     0.027216
      py      :     0.027216
      dz2     :     0.601166  d :     4.499366
      dxz     :     0.950391
      dyz     :     0.950391
      dx2y2   :     0.998737
      dxy     :     0.998680
      f0      :    -0.000598  f :     0.000960
      f+1     :     0.000662
      f-1     :     0.000662
      f+2     :     0.000118
      f-2     :     0.000117
      f+3     :     0.000000
      f-3     :     0.000000
      g0      :    -0.000283  g :    -0.000458
      g+1     :    -0.000090
      g-1     :    -0.000090
      g+2     :     0.000003
      g-2     :     0.000003
      g+3     :     0.000000
      g-3     :     0.000000
      g+4     :     0.000000
      g-4     :     0.000000
  1 Cls       :    -0.005710  s :    -0.005710
      pz      :    -0.105121  p :    -0.067677
      px      :     0.018722
      py      :     0.018722
      dz2     :     0.002091  d :     0.010142
      dxz     :     0.003179
      dyz     :     0.003179
      dx2y2   :     0.000831
      dxy     :     0.000863
      f0      :    -0.000385  f :     0.000103
      f+1     :    -0.000080
      f-1     :    -0.000080
      f+2     :     0.000311
      f-2     :     0.000337
      f+3     :    -0.000000
      f-3     :    -0.000000


                     *******************************
                     * LOEWDIN POPULATION ANALYSIS *
                     *******************************

-------------------------------------------
LOEWDIN ATOMIC CHARGES AND SPIN POPULATIONS
-------------------------------------------
   0 Cr:    0.004223    4.880632
   1 Cl:   -0.004223    0.119368

----------------------------------------------------
LOEWDIN REDUCED ORBITAL CHARGES AND SPIN POPULATIONS
----------------------------------------------------
CHARGE
  0 Crs       :     6.463750  s :     6.463750
      pz      :     4.161888  p :    12.316612
      px      :     4.077362
      py      :     4.077362
      dz2     :     0.873900  d :     4.970049
      dxz     :     1.054741
      dyz     :     1.054741
      dx2y2   :     0.993333
      dxy     :     0.993333
      f0      :     0.082069  f :     0.226887
      f+1     :     0.072020
      f-1     :     0.072020
      f+2     :     0.000388
      f-2     :     0.000390
      f+3     :     0.000000
      f-3     :     0.000000
      g0      :     0.007800  g :     0.018480
      g+1     :     0.005332
      g-1     :     0.005332
      g+2     :     0.000008
      g-2     :     0.000008
      g+3     :     0.000000
      g-3     :     0.000000
      g+4     :     0.000000
      g-4     :     0.000000
  1 Cls       :     5.588356  s :     5.588356
      pz      :     3.674894  p :    11.133409
      px      :     3.729257
      py      :     3.729257
      dz2     :     0.104741  d :     0.191626
      dxz     :     0.040019
      dyz     :     0.040019
      dx2y2   :     0.003423
      dxy     :     0.003423
      f0      :     0.042601  f :     0.090832
      f+1     :     0.021268
      f-1     :     0.021268
      f+2     :     0.002847
      f-2     :     0.002846
      f+3     :     0.000000
      f-3     :     0.000000

SPIN
  0 Crs       :     0.427350  s :     0.427350
      pz      :    -0.001165  p :     0.081076
      px      :     0.041121
      py      :     0.041121
      dz2     :     0.578726  d :     4.364728
      dxz     :     0.899668
      dyz     :     0.899668
      dx2y2   :     0.993333
      dxy     :     0.993333
      f0      :    -0.001532  f :     0.007704
      f+1     :     0.004229
      f-1     :     0.004229
      f+2     :     0.000388
      f-2     :     0.000390
      f+3     :     0.000000
      f-3     :     0.000000
      g0      :    -0.000678  g :    -0.000226
      g+1     :     0.000218
      g-1     :     0.000218
      g+2     :     0.000008
      g-2     :     0.000008
      g+3     :     0.000000
      g-3     :     0.000000
      g+4     :     0.000000
      g-4     :     0.000000
  1 Cls       :     0.013185  s :     0.013185
      pz      :    -0.025721  p :     0.006858
      px      :     0.016290
      py      :     0.016290
      dz2     :     0.007934  d :     0.064181
      dxz     :     0.024700
      dyz     :     0.024700
      dx2y2   :     0.003423
      dxy     :     0.003423
      f0      :     0.001902  f :     0.035144
      f+1     :     0.013774
      f-1     :     0.013774
      f+2     :     0.002847
      f-2     :     0.002846
      f+3     :    -0.000000
      f-3     :    -0.000000


                      *****************************
                      * MAYER POPULATION ANALYSIS *
                      *****************************

  NA   - Mulliken gross atomic population
  ZA   - Total nuclear charge
  QA   - Mulliken gross atomic charge
  VA   - Mayer's total valence
  BVA  - Mayer's bonded valence
  FA   - Mayer's free valence

  ATOM       NA         ZA         QA         VA         BVA        FA
  0 Cr    23.6521    24.0000     0.3479     5.9499     1.1025     4.8475
  1 Cl    17.3479    17.0000    -0.3479     1.1140     1.1025     0.0115

  Mayer bond orders larger than 0.100000
B(  0-Cr,  1-Cl) :   1.1025 

-------
TIMINGS
-------

Total SCF time: 0 days 0 hours 0 min 1 sec 

Total time                  ....       1.643 sec
Sum of individual times     ....       1.475 sec  ( 89.8%)

Fock matrix formation       ....       1.269 sec  ( 77.3%)
  Split-RI-J                ....       0.915 sec  ( 72.1% of F)
  XC integration            ....       0.150 sec  ( 11.8% of F)
    Basis function eval.    ....       0.017 sec  ( 11.6% of XC)
    Density eval.           ....       0.022 sec  ( 14.4% of XC)
    XC-Functional eval.     ....       0.005 sec  (  3.2% of XC)
    XC-Potential eval.      ....       0.056 sec  ( 37.6% of XC)
Diagonalization             ....       0.035 sec  (  2.1%)
Density matrix formation    ....       0.005 sec  (  0.3%)
Population analysis         ....       0.007 sec  (  0.5%)
Initial guess               ....       0.014 sec  (  0.9%)
Orbital Transformation      ....       0.000 sec  (  0.0%)
Orbital Orthonormalization  ....       0.009 sec  (  0.5%)
DIIS solution               ....       0.009 sec  (  0.5%)
Grid generation             ....       0.134 sec  (  8.2%)


-------------------------------------------------------------------------------
                          DFT DISPERSION CORRECTION                            
                                                                               
                              DFTD3 V3.1  Rev 1                                
                          USING Becke-Johnson damping                          
-------------------------------------------------------------------------------
The TPSS functional is recognized
Active option DFTDOPT                   ...         4   

molecular C6(AA) [au] = 792.508897 


            DFT-D V3
 parameters
 s6 scaling factor         :     1.0000 
 a1 scaling factor         :     0.4535 
 s8 scaling factor         :     1.9435 
 a2 scaling factor         :     4.4752 
 ad hoc parameters k1-k3   :    16.0000     1.3333    -4.0000 

 Edisp/kcal,au: -1.095965403423  -0.001746531856 
 E6   /kcal   :  -0.379510729 
 E8   /kcal   :  -0.716454675 
 % E8         :  65.372015620 

-------------------------   ----------------
Dispersion correction           -0.001746532
-------------------------   ----------------


-------------------------   --------------------
FINAL SINGLE POINT ENERGY     -1504.810543289193
-------------------------   --------------------

                                *** OPTIMIZATION RUN DONE ***

                            ***************************************
                            *     ORCA property calculations      *
                            ***************************************

                                    ---------------------
                                    Active property flags
                                    ---------------------
   (+) Dipole Moment


------------------------------------------------------------------------------
                       ORCA ELECTRIC PROPERTIES CALCULATION
------------------------------------------------------------------------------

Dipole Moment Calculation                       ... on
Quadrupole Moment Calculation                   ... off
Polarizability Calculation                      ... off
GBWName                                         ... 21_CrCl.gbw
Electron density file                           ... 21_CrCl.scfp
The origin for moment calculation is the CENTER OF MASS  = ( 0.000000,  0.000000  1.496825)

-------------
DIPOLE MOMENT
-------------
                                X             Y             Z
Electronic contribution:     -0.00000       0.00000      -3.44466
Nuclear contribution   :      0.00000       0.00000       1.57322
                        -----------------------------------------
Total Dipole Moment    :     -0.00000       0.00000      -1.87145
                        -----------------------------------------
Magnitude (a.u.)       :      1.87145
Magnitude (Debye)      :      4.75684



--------------------
Rotational spectrum 
--------------------
 
Rotational constants in cm-1:     0.000000     0.165568     0.165568 
Rotational constants in MHz :     0.000000  4963.604658  4963.604658 

 Dipole components along the rotational axes: 
x,y,z [a.u.] :    -1.871446     0.000000    -0.000000 
x,y,z [Debye]:    -4.756838     0.000000    -0.000000 

 

Timings for individual modules:

Sum of individual times         ...       70.434 sec (=   1.174 min)
GTO integral calculation        ...       20.936 sec (=   0.349 min)  29.7 %
SCF iterations                  ...       19.705 sec (=   0.328 min)  28.0 %
SCF Gradient evaluation         ...       29.594 sec (=   0.493 min)  42.0 %
Geometry relaxation             ...        0.198 sec (=   0.003 min)   0.3 %
                             ****ORCA TERMINATED NORMALLY****
TOTAL RUN TIME: 0 days 0 hours 1 minutes 11 seconds 358 msec
