
                                 *****************
                                 * O   R   C   A *
                                 *****************

           --- An Ab Initio, DFT and Semiempirical electronic structure package ---

                  #######################################################
                  #                        -***-                        #
                  #          Department of theory and spectroscopy      #
                  #               Directorship: Frank Neese             #
                  #        Max Planck Institute fuer Kohlenforschung    #
                  #                Kaiser Wilhelm Platz 1               #
                  #                 D-45470 Muelheim/Ruhr               #
                  #                      Germany                        #
                  #                                                     #
                  #                  All rights reserved                #
                  #                        -***-                        #
                  #######################################################


                         Program Version 4.2.0 -  RELEASE  -


 With contributions from (in alphabetic order):
   Daniel Aravena         : Magnetic Suceptibility
   Michael Atanasov       : Ab Initio Ligand Field Theory (pilot matlab implementation)
   Alexander A. Auer      : GIAO ZORA, VPT2
   Ute Becker             : Parallelization
   Giovanni Bistoni       : ED, misc. LED, open-shell LED, HFLED
   Martin Brehm           : Molecular dynamics
   Dmytro Bykov           : SCF Hessian
   Vijay G. Chilkuri      : MRCI spin determinant printing, contributions to CSF-ICE
   Dipayan Datta          : RHF DLPNO-CCSD density
   Achintya Kumar Dutta   : EOM-CC, STEOM-CC
   Dmitry Ganyushin       : Spin-Orbit,Spin-Spin,Magnetic field MRCI
   Miquel Garcia          : C-PCM Hessian, Gaussian charge scheme
   Yang Guo               : DLPNO-NEVPT2, CIM, IAO-localization
   Andreas Hansen         : Spin unrestricted coupled pair/coupled cluster methods
   Benjamin Helmich-Paris : CASSCF linear response (MC-RPA)
   Lee Huntington         : MR-EOM, pCC
   Robert Izsak           : Overlap fitted RIJCOSX, COSX-SCS-MP3, EOM
   Christian Kollmar      : KDIIS, OOCD, Brueckner-CCSD(T), CCSD density
   Simone Kossmann        : Meta GGA functionals, TD-DFT gradient, OOMP2, MP2 Hessian
   Martin Krupicka        : AUTO-CI
   Lucas Lang             : DCDCAS
   Dagmar Lenk            : GEPOL surface, SMD
   Dimitrios Liakos       : Extrapolation schemes; Compound Job, initial MDCI parallelization
   Dimitrios Manganas     : Further ROCIS development; embedding schemes
   Dimitrios Pantazis     : SARC Basis sets
   Taras Petrenko         : DFT Hessian,TD-DFT gradient, ASA, ECA, R-Raman, ABS, FL, XAS/XES, NRVS
   Peter Pinski           : DLPNO-MP2, DLPNO-MP2 Gradient
   Christoph Reimann      : Effective Core Potentials
   Marius Retegan         : Local ZFS, SOC
   Christoph Riplinger    : Optimizer, TS searches, QM/MM, DLPNO-CCSD(T), (RO)-DLPNO pert. Triples
   Tobias Risthaus        : Range-separated hybrids, TD-DFT gradient, RPA, STAB
   Michael Roemelt        : Original ROCIS implementation
   Masaaki Saitow         : Open-shell DLPNO-CCSD energy and density
   Barbara Sandhoefer     : DKH picture change effects
   Avijit Sen             : IP-ROCIS
   Kantharuban Sivalingam : CASSCF convergence, NEVPT2, FIC-MRCI
   Bernardo de Souza      : ESD, SOC TD-DFT
   Georgi Stoychev        : AutoAux, RI-MP2 NMR
   Willem Van den Heuvel  : Paramagnetic NMR
   Boris Wezisla          : Elementary symmetry handling
   Frank Wennmohs         : Technical directorship


 We gratefully acknowledge several colleagues who have allowed us to
 interface, adapt or use parts of their codes:
   Stefan Grimme, W. Hujo, H. Kruse,             : VdW corrections, initial TS optimization,
                  C. Bannwarth                     DFT functionals, gCP, sTDA/sTD-DF
   Ed Valeev, F. Pavosevic, A. Kumar             : LibInt (2-el integral package), F12 methods
   Garnet Chan, S. Sharma, J. Yang, R. Olivares  : DMRG
   Ulf Ekstrom                                   : XCFun DFT Library
   Mihaly Kallay                                 : mrcc  (arbitrary order and MRCC methods)
   Andreas Klamt, Michael Diedenhofen            : otool_cosmo (COSMO solvation model)
   Jiri Pittner, Ondrej Demel                    : Mk-CCSD
   Frank Weinhold                                : gennbo (NPA and NBO analysis)
   Christopher J. Cramer and Donald G. Truhlar   : smd solvation model
   Lars Goerigk                                  : TD-DFT with DH, B97 family of functionals
   V. Asgeirsson, H. Jonsson                     : NEB implementation
   FAccTs GmbH                                   : IRC, NEB, NEB-TS, Multilevel, MM, QM/MM, CI optimization
   S Lehtola, MJT Oliveira, MAL Marques          : LibXC Library


 Your calculation uses the libint2 library for the computation of 2-el integrals
 For citations please refer to: http://libint.valeyev.net

 Your ORCA version has been built with support for libXC version: 4.2.3
 For citations please refer to: https://tddft.org/programs/libxc/

 This ORCA versions uses:
   CBLAS   interface :  Fast vector & matrix operations
   LAPACKE interface :  Fast linear algebra routines
   SCALAPACK package :  Parallel linear algebra routines


Your calculation utilizes the atom-pairwise dispersion correction
with the Becke-Johnson damping scheme (D3BJ)
Cite in your paper:
S.Grimme, S.Ehrlich, L.Goerigk, J Comput Chem, (2011), 32, 1456–1465 
S.Grimme, J.Antony, S.Ehrlich and H.Krieg, J.Chem.Phys., 132, (2010), 154104 
   

----- Orbital basis set information -----
Your calculation utilizes the basis: aug-cc-pVTZ 
    H, B-Ne : Obtained from the ccRepo (grant-hill.group.shef.ac.uk/ccrepo) Feb. 2017
              R. A. Kendall, T. H. Dunning, Jr., R. J. Harrison, J. Chem. Phys. 96, 6796 (1992)
         He : Obtained from the ccRepo (grant-hill.group.shef.ac.uk/ccrepo) Feb. 2017
              D. E. Woon, T. H. Dunning, Jr., J. Chem. Phys. 100, 2975 (1994)
  Li-Be, Na : Obtained from the ccRepo (grant-hill.group.shef.ac.uk/ccrepo) Feb. 2017
              B. P. Prascher, D. E. Woon, K. A. Peterson, T. H. Dunning, Jr., A. K. Wilson, Theor. Chem. Acc. 128, 69 (2011)
         Mg : Obtained from the Peterson Research Group Website (tyr0.chem.wsu.edu/~kipeters) Feb. 2017
              B. P. Prascher, D. E. Woon, K. A. Peterson, T. H. Dunning, Jr., A. K. Wilson, Theor. Chem. Acc. 128, 69 (2011)
      Al-Ar : Obtained from the ccRepo (grant-hill.group.shef.ac.uk/ccrepo) Feb. 2017
              D. E. Woon, T. H. Dunning, Jr., J. Chem. Phys. 98, 1358 (1993)
      Sc-Zn : Obtained from the ccRepo (grant-hill.group.shef.ac.uk/ccrepo) Feb. 2017
              N. B. Balabanov, K. A. Peterson, J. Chem. Phys. 123, 064107 (2005)
              N. B. Balabanov, K. A. Peterson, J. Chem. Phys. 125, 074110 (2006)
      Ga-Kr : Obtained from the ccRepo (grant-hill.group.shef.ac.uk/ccrepo) Feb. 2017
              A. K. Wilson, D. E. Woon, K. A. Peterson, T. H. Dunning, Jr., J. Chem. Phys. 110, 7667 (1999)
     Ag, Au : Obtained from the Peterson Research Group Website (tyr0.chem.wsu.edu/~kipeters) Feb. 2017
              K. A. Peterson, C. Puzzarini, Theor. Chem. Acc. 114, 283 (2005)

----- AuxJ basis set information -----
Your calculation utilizes the auxiliary basis: def2/J
   F. Weigend, Phys. Chem. Chem. Phys. 8, 1057 (2006).

================================================================================
                                        WARNINGS
                       Please study these warnings very carefully!
================================================================================


WARNING: your system is open-shell and RHF/RKS was chosen
  ===> : WILL SWITCH to UHF/UKS


WARNING: Geometry Optimization
  ===> : Switching off AutoStart
         For restart on a previous wavefunction, please use MOREAD

INFO   : the flag for use of LIBINT has been found!

================================================================================
                                       INPUT FILE
================================================================================
NAME = 22_CrBr.in
|  1> #
|  2> # 22_CrBr tpss/aug-cc-pvtz
|  3> #
|  4> ! tpss d3bj aug-cc-pvtz def2/j opt xyzfile
|  5> 
|  6> *xyz 0 6
|  7> Cr 0.0 0.0 0.0
|  8> Br 0.0 0.0 2.0
|  9> *
| 10> 
| 11> %pal
| 12> nprocs 24
| 13> end
| 14> 
| 15> 
| 16>                          ****END OF INPUT****
================================================================================

                       *****************************
                       * Geometry Optimization Run *
                       *****************************

Geometry optimization settings:
Update method            Update   .... BFGS
Choice of coordinates    CoordSys .... Z-matrix Internals
Initial Hessian          InHess   .... Almoef's Model

Convergence Tolerances:
Energy Change            TolE     ....  5.0000e-06 Eh
Max. Gradient            TolMAXG  ....  3.0000e-04 Eh/bohr
RMS Gradient             TolRMSG  ....  1.0000e-04 Eh/bohr
Max. Displacement        TolMAXD  ....  4.0000e-03 bohr
RMS Displacement         TolRMSD  ....  2.0000e-03 bohr
Strict Convergence                ....  False
------------------------------------------------------------------------------
                        ORCA OPTIMIZATION COORDINATE SETUP
------------------------------------------------------------------------------

The optimization will be done in new redundant internal coordinates
Making redundant internal coordinates   ...  (new redundants) done
Evaluating the initial hessian          ...  (Almloef) done
Evaluating the coordinates              ...  done
Calculating the B-matrix                .... done
Calculating the G-matrix                .... done
Diagonalizing the G-matrix              .... done
The first mode is                       ....    0
The number of degrees of freedom        ....    1

    -----------------------------------------------------------------
                    Redundant Internal Coordinates


    -----------------------------------------------------------------
         Definition                    Initial Value    Approx d2E/dq
    -----------------------------------------------------------------
      1. B(Br  1,Cr  0)                  2.0000         2.260171   
    -----------------------------------------------------------------

Number of atoms                         .... 2
Number of degrees of freedom            .... 1

         *************************************************************
         *                GEOMETRY OPTIMIZATION CYCLE   1            *
         *************************************************************
---------------------------------
CARTESIAN COORDINATES (ANGSTROEM)
---------------------------------
  Cr     0.000000    0.000000    0.000000
  Br     0.000000    0.000000    2.000000

----------------------------
CARTESIAN COORDINATES (A.U.)
----------------------------
  NO LB      ZA    FRAG     MASS         X           Y           Z
   0 Cr   24.0000    0    52.000    0.000000    0.000000    0.000000
   1 Br   35.0000    0    79.900    0.000000    0.000000    3.779452

--------------------------------
INTERNAL COORDINATES (ANGSTROEM)
--------------------------------
 Cr     0   0   0     0.000000000000     0.00000000     0.00000000
 Br     1   0   0     2.000000000000     0.00000000     0.00000000

---------------------------
INTERNAL COORDINATES (A.U.)
---------------------------
 Cr     0   0   0     0.000000000000     0.00000000     0.00000000
 Br     1   0   0     3.779452267843     0.00000000     0.00000000

---------------------
BASIS SET INFORMATION
---------------------
There are 2 groups of distinct atoms

 Group   1 Type Cr  : 116s77p23d3f2g contracted to 8s7p5d3f2g pattern {19191919191911/151515151511/77711/111/11}
 Group   2 Type Br  : 75s36p10d2f contracted to 7s6p4d2f pattern {18181818111/111111111/7111/11}

Atom   0Cr   basis set group =>   1
Atom   1Br   basis set group =>   2
---------------------------------
AUXILIARY/J BASIS SET INFORMATION
---------------------------------
There are 2 groups of distinct atoms

 Group   1 Type Cr  : 19s5p5d3f3g contracted to 8s5p5d2f3g pattern {121111111/11111/11111/21/111}
 Group   2 Type Br  : 19s5p5d3f1g contracted to 8s4p3d2f1g pattern {121111111/2111/311/21/1}

Atom   0Cr   basis set group =>   1
Atom   1Br   basis set group =>   2


           ************************************************************
           *        Program running with 24 parallel MPI-processes    *
           *              working on a common directory               *
           ************************************************************
------------------------------------------------------------------------------
                           ORCA GTO INTEGRAL CALCULATION
                           -- RI-GTO INTEGRALS CHOSEN --
------------------------------------------------------------------------------

                         BASIS SET STATISTICS AND STARTUP INFO

Gaussian basis set:
 # of primitive gaussian shells          ...  344
 # of primitive gaussian functions       ...  748
 # of contracted shells                  ...   44
 # of contracted basis functions         ...  152
 Highest angular momentum                ...    4
 Maximum contraction depth               ...   19
Auxiliary gaussian basis set:
 # of primitive gaussian shells          ...   68
 # of primitive gaussian functions       ...  196
 # of contracted shells                  ...   41
 # of contracted aux-basis functions     ...  147
 Highest angular momentum                ...    4
 Maximum contraction depth               ...   12
Ratio of auxiliary to basis functions    ...  0.97
Integral package used                  ... LIBINT
 One Electron integrals                  ... done
 Ordering auxiliary basis shells         ... done
 Integral threshhold             Thresh  ...  2.500e-11
 Primitive cut-off               TCut    ...  2.500e-12
 Pre-screening matrix                    ... done
 Shell pair data                         ... 
 Ordering of the shell pairs             ... done (   0.000 sec) 990 of 990 pairs
 Determination of significant pairs      ... done (   0.000 sec)
 Creation of shell pair data             ... done (   0.002 sec)
 Storage of shell pair data              ... done (   0.076 sec)
 Shell pair data done in (   0.078 sec)
 Computing two index integrals           ... done
 Cholesky decomposition of the V-matrix  ... done


Timings:
 Total evaluation time                   ...   3.888 sec (  0.065 min)
 One electron matrix time                ...   0.056 sec (  0.001 min) =  1.4%
 Schwartz matrix evaluation time         ...   3.726 sec (  0.062 min) = 95.8%
 Two index repulsion integral time       ...   0.001 sec (  0.000 min) =  0.0%
 Cholesky decomposition of V             ...   0.001 sec (  0.000 min) =  0.0%
 Three index repulsion integral time     ...   0.000 sec (  0.000 min) =  0.0%



           ************************************************************
           *        Program running with 24 parallel MPI-processes    *
           *              working on a common directory               *
           ************************************************************
-------------------------------------------------------------------------------
                                 ORCA SCF
-------------------------------------------------------------------------------

------------
SCF SETTINGS
------------
Hamiltonian:
 Density Functional     Method          .... DFT(GTOs)
 Exchange Functional    Exchange        .... TPSS
 Correlation Functional Correlation     .... TPSS
 LDA part of GGA corr.  LDAOpt          .... PW91-LDA
 Gradients option       PostSCFGGA      .... off
   Density functional embedding theory  .... OFF
   NL short-range parameter             ....  5.000000
 RI-approximation to the Coulomb term is turned on
   Number of auxiliary basis functions  .... 147


General Settings:
 Integral files         IntName         .... 22_CrBr
 Hartree-Fock type      HFTyp           .... UHF
 Total Charge           Charge          ....    0
 Multiplicity           Mult            ....    6
 Number of Electrons    NEL             ....   59
 Basis Dimension        Dim             ....  152
 Nuclear Repulsion      ENuc            ....    222.2544274860 Eh

Convergence Acceleration:
 DIIS                   CNVDIIS         .... on
   Start iteration      DIISMaxIt       ....    12
   Startup error        DIISStart       ....  0.200000
   # of expansion vecs  DIISMaxEq       ....     5
   Bias factor          DIISBfac        ....   1.050
   Max. coefficient     DIISMaxC        ....  10.000
 Newton-Raphson         CNVNR           .... off
 SOSCF                  CNVSOSCF        .... off
 Level Shifting         CNVShift        .... on
   Level shift para.    LevelShift      ....    0.2500
   Turn off err/grad.   ShiftErr        ....    0.0010
 Zerner damping         CNVZerner       .... off
 Static damping         CNVDamp         .... on
   Fraction old density DampFac         ....    0.7000
   Max. Damping (<1)    DampMax         ....    0.9800
   Min. Damping (>=0)   DampMin         ....    0.0000
   Turn off err/grad.   DampErr         ....    0.1000
 Fernandez-Rico         CNVRico         .... off

SCF Procedure:
 Maximum # iterations   MaxIter         ....   125
 SCF integral mode      SCFMode         .... Direct
   Integral package                     .... LIBINT
 Reset frequency        DirectResetFreq ....    20
 Integral Threshold     Thresh          ....  2.500e-11 Eh
 Primitive CutOff       TCut            ....  2.500e-12 Eh

Convergence Tolerance:
 Convergence Check Mode ConvCheckMode   .... Total+1el-Energy
 Convergence forced     ConvForced      .... 0
 Energy Change          TolE            ....  1.000e-08 Eh
 1-El. energy change                    ....  1.000e-05 Eh
 DIIS Error             TolErr          ....  5.000e-07


Diagonalization of the overlap matrix:
Smallest eigenvalue                        ... 7.398e-05
Time for diagonalization                   ...    0.006 sec
Threshold for overlap eigenvalues          ... 1.000e-08
Number of eigenvalues below threshold      ... 0
Time for construction of square roots      ...    0.003 sec
Total time needed                          ...    0.008 sec

-------------------
DFT GRID GENERATION
-------------------

General Integration Accuracy     IntAcc      ...  4.340
Radial Grid Type                 RadialGrid  ... Gauss-Chebyshev
Angular Grid (max. acc.)         AngularGrid ... Lebedev-110
Angular grid pruning method      GridPruning ... 3 (G Style)
Weight generation scheme         WeightScheme... Becke
Basis function cutoff            BFCut       ...    1.0000e-11
Integration weight cutoff        WCut        ...    1.0000e-14
Grids for H and He will be reduced by one unit

# of grid points (after initial pruning)     ...   5862 (   0.0 sec)
# of grid points (after weights+screening)   ...   5836 (   0.0 sec)
nearest neighbour list constructed           ...    0.0 sec
Grid point re-assignment to atoms done       ...    0.0 sec
Grid point division into batches done        ...    0.0 sec
Reduced shell lists constructed in    0.0 sec

Total number of grid points                  ...     5836
Total number of batches                      ...       93
Average number of points per batch           ...       62
Average number of grid points per atom       ...     2918
Average number of shells per batch           ...    25.20 (57.27%)
Average number of basis functions per batch  ...    80.40 (52.89%)
Average number of large shells per batch     ...    18.00 (71.43%)
Average number of large basis fcns per batch ...    54.00 (67.16%)
Maximum spatial batch extension              ...  18.98, 28.73, 16.15 au
Average spatial batch extension              ...   0.75,  1.03,  0.69 au

Time for grid setup =    0.032 sec

------------------------------
INITIAL GUESS: MODEL POTENTIAL
------------------------------
Loading Hartree-Fock densities                     ... done
Calculating cut-offs                               ... done
Setting up the integral package                    ... done
Initializing the effective Hamiltonian             ... done
Starting the Coulomb interaction                   ... done (   0.0 sec)
Reading the grid                                   ... done
Mapping shells                                     ... done
Starting the XC term evaluation                    ... done (   0.0 sec)
  promolecular density results
     # of electrons  =     58.999828025
     EX              =   -136.553174604
     EC              =     -2.742306474
     EX+EC           =   -139.295481078
Transforming the Hamiltonian                       ... done (   0.0 sec)
Diagonalizing the Hamiltonian                      ... done (   0.0 sec)
Back transforming the eigenvectors                 ... done (   0.0 sec)
Now organizing SCF variables                       ... done
                      ------------------
                      INITIAL GUESS DONE (   0.2 sec)
                      ------------------
--------------
SCF ITERATIONS
--------------
ITER       Energy         Delta-E        Max-DP      RMS-DP      [F,P]     Damp
               ***  Starting incremental Fock matrix formation  ***
  0  -3618.5291213024   0.000000000000 0.10751128  0.00202682  0.1527821 0.7000
  1  -3618.5846865033  -0.055565200847 0.04860309  0.00072125  0.0410058 0.7000
                               ***Turning on DIIS***
  2  -3618.5965629200  -0.011876416783 0.16086388  0.00291362  0.0429046 0.0000
  3  -3618.6361487241  -0.039585804108 0.07952759  0.00147905  0.0278975 0.0000
  4  -3618.6396242362  -0.003475512050 0.03173628  0.00052073  0.0222573 0.0000
  5  -3618.6409191587  -0.001294922466 0.00940400  0.00019165  0.0025564 0.0000
  6  -3618.6410268161  -0.000107657433 0.00290653  0.00006554  0.0010229 0.0000
  7  -3618.6410548401  -0.000028023996 0.00213838  0.00003932  0.0005278 0.0000
  8  -3618.6410664464  -0.000011606267 0.00027259  0.00000753  0.0002822 0.0000
  9  -3618.6410666362  -0.000000189807 0.00046307  0.00000614  0.0001967 0.0000
 10  -3618.6410665760   0.000000060214 0.00029411  0.00000351  0.0002212 0.0000
 11  -3618.6410667746  -0.000000198614 0.00004698  0.00000088  0.0000499 0.0000
 12  -3618.6410668383  -0.000000063746 0.00002328  0.00000030  0.0000112 0.0000
 13  -3618.6410668674  -0.000000029089 0.00000719  0.00000011  0.0000040 0.0000
                            ***DIIS convergence achieved***

               *****************************************************
               *                     SUCCESS                       *
               *           SCF CONVERGED AFTER  14 CYCLES          *
               *****************************************************

Setting up the final grid:

General Integration Accuracy     IntAcc      ...  4.670
Radial Grid Type                 RadialGrid  ... Gauss-Chebyshev
Angular Grid (max. acc.)         AngularGrid ... Lebedev-302
Angular grid pruning method      GridPruning ... 3 (G Style)
Weight generation scheme         WeightScheme... Becke
Basis function cutoff            BFCut       ...    1.0000e-11
Integration weight cutoff        WCut        ...    1.0000e-14
Grids for H and He will be reduced by one unit

# of grid points (after initial pruning)     ...  19280 (   0.0 sec)
# of grid points (after weights+screening)   ...  19251 (   0.0 sec)
nearest neighbour list constructed           ...    0.0 sec
Grid point re-assignment to atoms done       ...    0.0 sec
Grid point division into batches done        ...    0.1 sec
Reduced shell lists constructed in    0.1 sec

Total number of grid points                  ...    19251
Total number of batches                      ...      302
Average number of points per batch           ...       63
Average number of grid points per atom       ...     9626
Average number of shells per batch           ...    19.50 (44.32%)
Average number of basis functions per batch  ...    54.50 (35.86%)
Average number of large shells per batch     ...    11.64 (59.71%)
Average number of large basis fcns per batch ...    33.21 (60.94%)
Maximum spatial batch extension              ...  24.49, 24.19, 17.58 au
Average spatial batch extension              ...   0.85,  0.84,  0.66 au

Final grid set up in    0.2 sec
Final integration                            ... done (   0.1 sec)
Change in XC energy                          ...    -0.001925240
Integrated number of electrons               ...    59.000011595
Previous integrated no of electrons          ...    58.999759653

----------------
TOTAL SCF ENERGY
----------------

Total Energy       :        -3618.64299206 Eh          -98468.28184 eV

Components:
Nuclear Repulsion  :          222.25442749 Eh            6047.85044 eV
Electronic Energy  :        -3840.89741955 Eh         -104516.13228 eV
One Electron Energy:        -5464.39980645 Eh         -148693.87818 eV
Two Electron Energy:         1623.50238690 Eh           44177.74590 eV

Virial components:
Potential Energy   :        -7232.04000452 Eh         -196793.81333 eV
Kinetic Energy     :         3613.39701245 Eh           98325.53148 eV
Virial Ratio       :            2.00145181


DFT components:
N(Alpha)           :       32.000005403047 electrons
N(Beta)            :       27.000006192388 electrons
N(Total)           :       59.000011595435 electrons
E(X)               :     -137.339027737158 Eh       
E(C)               :       -2.737947210286 Eh       
E(XC)              :     -140.076974947444 Eh       
DFET-embed. en.    :        0.000000000000 Eh       

---------------
SCF CONVERGENCE
---------------

  Last Energy change         ...    4.3384e-08  Tolerance :   1.0000e-08
  Last MAX-Density change    ...    1.4334e-06  Tolerance :   1.0000e-07
  Last RMS-Density change    ...    2.5931e-08  Tolerance :   5.0000e-09
  Last DIIS Error            ...    6.8365e-07  Tolerance :   5.0000e-07

             **** THE GBW FILE WAS UPDATED (22_CrBr.gbw) ****
             **** DENSITY FILE WAS UPDATED (22_CrBr.scfp) ****
             **** ENERGY FILE WAS UPDATED (22_CrBr.en.tmp) ****
----------------------
UHF SPIN CONTAMINATION
----------------------

Warning: in a DFT calculation there is little theoretical justification to 
         calculate <S**2> as in Hartree-Fock theory. We will do it anyways
         but you should keep in mind that the values have only limited relevance

Expectation value of <S**2>     :     8.766656
Ideal value S*(S+1) for S=2.5   :     8.750000
Deviation                       :     0.016656

             **** THE GBW FILE WAS UPDATED (22_CrBr.gbw) ****
             **** DENSITY FILE WAS UPDATED (22_CrBr.scfp) ****
----------------
ORBITAL ENERGIES
----------------
                 SPIN UP ORBITALS
  NO   OCC          E(Eh)            E(eV) 
   0   1.0000    -481.712576    -13108.0656 
   1   1.0000    -214.906351     -5847.8991 
   2   1.0000     -61.927650     -1685.1370 
   3   1.0000     -55.760219     -1517.3127 
   4   1.0000     -55.760126     -1517.3102 
   5   1.0000     -55.760126     -1517.3102 
   6   1.0000     -24.308183      -661.4593 
   7   1.0000     -20.610132      -560.8302 
   8   1.0000     -20.609275      -560.8069 
   9   1.0000     -20.609275      -560.8069 
  10   1.0000      -8.456448      -230.1117 
  11   1.0000      -6.294285      -171.2762 
  12   1.0000      -6.292701      -171.2331 
  13   1.0000      -6.292701      -171.2331 
  14   1.0000      -2.777636       -75.5833 
  15   1.0000      -2.464593       -67.0650 
  16   1.0000      -2.463226       -67.0278 
  17   1.0000      -2.463226       -67.0278 
  18   1.0000      -2.462112       -66.9975 
  19   1.0000      -2.461628       -66.9843 
  20   1.0000      -1.762268       -47.9538 
  21   1.0000      -1.748649       -47.5832 
  22   1.0000      -1.748649       -47.5832 
  23   1.0000      -0.694531       -18.8991 
  24   1.0000      -0.310877        -8.4594 
  25   1.0000      -0.290020        -7.8918 
  26   1.0000      -0.290020        -7.8918 
  27   1.0000      -0.179364        -4.8807 
  28   1.0000      -0.175714        -4.7814 
  29   1.0000      -0.175387        -4.7725 
  30   1.0000      -0.163777        -4.4566 
  31   1.0000      -0.163777        -4.4566 
  32   0.0000      -0.103483        -2.8159 
  33   0.0000      -0.032011        -0.8711 
  34   0.0000      -0.032011        -0.8711 
  35   0.0000       0.000353         0.0096 
  36   0.0000       0.003432         0.0934 
  37   0.0000       0.021631         0.5886 
  38   0.0000       0.021631         0.5886 
  39   0.0000       0.038210         1.0398 
  40   0.0000       0.038482         1.0471 
  41   0.0000       0.041479         1.1287 
  42   0.0000       0.045526         1.2388 
  43   0.0000       0.045526         1.2388 
  44   0.0000       0.057932         1.5764 
  45   0.0000       0.096280         2.6199 
  46   0.0000       0.096280         2.6199 
  47   0.0000       0.101365         2.7583 
  48   0.0000       0.106214         2.8902 
  49   0.0000       0.136641         3.7182 
  50   0.0000       0.136641         3.7182 
  51   0.0000       0.167580         4.5601 
  52   0.0000       0.167639         4.5617 
  53   0.0000       0.177781         4.8377 
  54   0.0000       0.191615         5.2141 
  55   0.0000       0.196898         5.3579 
  56   0.0000       0.196898         5.3579 
  57   0.0000       0.213835         5.8187 
  58   0.0000       0.214198         5.8286 
  59   0.0000       0.276234         7.5167 
  60   0.0000       0.289500         7.8777 
  61   0.0000       0.289500         7.8777 
  62   0.0000       0.363829         9.9003 
  63   0.0000       0.463624        12.6159 
  64   0.0000       0.463624        12.6159 
  65   0.0000       0.489228        13.3126 
  66   0.0000       0.489228        13.3126 
  67   0.0000       0.535434        14.5699 
  68   0.0000       0.535682        14.5766 
  69   0.0000       0.553887        15.0720 
  70   0.0000       0.553887        15.0720 
  71   0.0000       0.582673        15.8553 
  72   0.0000       0.591884        16.1060 
  73   0.0000       0.609220        16.5777 
  74   0.0000       0.615017        16.7355 
  75   0.0000       0.615394        16.7457 
  76   0.0000       0.642069        17.4716 
  77   0.0000       0.642069        17.4716 
  78   0.0000       0.657839        17.9007 
  79   0.0000       0.657839        17.9007 
  80   0.0000       0.723019        19.6744 
  81   0.0000       0.752208        20.4686 
  82   0.0000       0.752658        20.4809 
  83   0.0000       0.790851        21.5201 
  84   0.0000       0.790851        21.5201 
  85   0.0000       0.877428        23.8760 
  86   0.0000       0.896705        24.4006 
  87   0.0000       0.896705        24.4006 
  88   0.0000       0.982974        26.7481 
  89   0.0000       0.983059        26.7504 
  90   0.0000       1.196100        32.5475 
  91   0.0000       1.282746        34.9053 
  92   0.0000       1.282746        34.9053 
  93   0.0000       1.499712        40.8092 
  94   0.0000       1.715992        46.6945 
  95   0.0000       1.716297        46.7028 
  96   0.0000       1.722812        46.8801 
  97   0.0000       1.722812        46.8801 
  98   0.0000       1.742000        47.4022 
  99   0.0000       1.742000        47.4022 
 100   0.0000       1.765287        48.0359 
 101   0.0000       1.892566        51.4993 
 102   0.0000       1.904380        51.8208 
 103   0.0000       1.904380        51.8208 
 104   0.0000       1.964546        53.4580 
 105   0.0000       1.968194        53.5573 
 106   0.0000       2.006815        54.6082 
 107   0.0000       2.006976        54.6126 
 108   0.0000       2.006976        54.6126 
 109   0.0000       2.014797        54.8254 
 110   0.0000       2.014797        54.8254 
 111   0.0000       2.056272        55.9540 
 112   0.0000       2.058676        56.0194 
 113   0.0000       2.116455        57.5917 
 114   0.0000       2.119167        57.6655 
 115   0.0000       2.121864        57.7389 
 116   0.0000       2.131987        58.0143 
 117   0.0000       2.131987        58.0143 
 118   0.0000       2.210922        60.1622 
 119   0.0000       2.210922        60.1622 
 120   0.0000       2.293289        62.4036 
 121   0.0000       2.293289        62.4036 
 122   0.0000       2.334614        63.5281 
 123   0.0000       2.334909        63.5361 
 124   0.0000       2.461148        66.9713 
 125   0.0000       2.767612        75.3106 
 126   0.0000       2.767612        75.3106 
 127   0.0000       2.855401        77.6994 
 128   0.0000       3.084449        83.9321 
 129   0.0000       3.231051        87.9214 
 130   0.0000       3.232260        87.9543 
 131   0.0000       3.540507        96.3421 
 132   0.0000       3.540507        96.3421 
 133   0.0000       4.163617       113.2978 
 134   0.0000       4.772039       129.8538 
 135   0.0000       6.049866       164.6252 
 136   0.0000       6.049866       164.6252 
 137   0.0000       6.055455       164.7773 
 138   0.0000       6.058601       164.8629 
 139   0.0000       6.170334       167.9033 
 140   0.0000       6.170334       167.9033 
 141   0.0000       6.352092       172.8492 
 142   0.0000       6.570762       178.7995 
 143   0.0000       6.570863       178.8023 
 144   0.0000       6.574924       178.9128 
 145   0.0000       6.574924       178.9128 
 146   0.0000       6.643483       180.7784 
 147   0.0000       6.655170       181.0964 
 148   0.0000       6.807580       185.2437 
 149   0.0000       6.807580       185.2437 
 150   0.0000       6.908721       187.9959 
 151   0.0000       7.840017       213.3377 

                 SPIN DOWN ORBITALS
  NO   OCC          E(Eh)            E(eV) 
   0   1.0000    -481.712665    -13108.0680 
   1   1.0000    -214.905492     -5847.8757 
   2   1.0000     -61.927600     -1685.1357 
   3   1.0000     -55.760474     -1517.3196 
   4   1.0000     -55.760016     -1517.3072 
   5   1.0000     -55.760016     -1517.3072 
   6   1.0000     -24.257637      -660.0838 
   7   1.0000     -20.573168      -559.8244 
   8   1.0000     -20.566345      -559.6387 
   9   1.0000     -20.566345      -559.6387 
  10   1.0000      -8.456476      -230.1124 
  11   1.0000      -6.294723      -171.2881 
  12   1.0000      -6.292533      -171.2285 
  13   1.0000      -6.292533      -171.2285 
  14   1.0000      -2.625876       -71.4537 
  15   1.0000      -2.464890       -67.0731 
  16   1.0000      -2.463426       -67.0332 
  17   1.0000      -2.463426       -67.0332 
  18   1.0000      -2.461761       -66.9879 
  19   1.0000      -2.461275       -66.9747 
  20   1.0000      -1.619094       -44.0578 
  21   1.0000      -1.590618       -43.2829 
  22   1.0000      -1.590618       -43.2829 
  23   1.0000      -0.691608       -18.8196 
  24   1.0000      -0.294709        -8.0194 
  25   1.0000      -0.271937        -7.3998 
  26   1.0000      -0.271937        -7.3998 
  27   0.0000      -0.092577        -2.5191 
  28   0.0000      -0.044006        -1.1975 
  29   0.0000      -0.041992        -1.1427 
  30   0.0000      -0.041992        -1.1427 
  31   0.0000      -0.036258        -0.9866 
  32   0.0000      -0.036045        -0.9808 
  33   0.0000       0.006847         0.1863 
  34   0.0000       0.006847         0.1863 
  35   0.0000       0.010447         0.2843 
  36   0.0000       0.020202         0.5497 
  37   0.0000       0.038185         1.0391 
  38   0.0000       0.038185         1.0391 
  39   0.0000       0.054685         1.4881 
  40   0.0000       0.061032         1.6608 
  41   0.0000       0.061126         1.6633 
  42   0.0000       0.061840         1.6828 
  43   0.0000       0.061840         1.6828 
  44   0.0000       0.071802         1.9538 
  45   0.0000       0.106191         2.8896 
  46   0.0000       0.106191         2.8896 
  47   0.0000       0.112396         3.0584 
  48   0.0000       0.140898         3.8340 
  49   0.0000       0.170812         4.6480 
  50   0.0000       0.170812         4.6480 
  51   0.0000       0.184558         5.0221 
  52   0.0000       0.184568         5.0223 
  53   0.0000       0.189557         5.1581 
  54   0.0000       0.219774         5.9804 
  55   0.0000       0.229607         6.2479 
  56   0.0000       0.229607         6.2479 
  57   0.0000       0.244159         6.6439 
  58   0.0000       0.244361         6.6494 
  59   0.0000       0.292430         7.9574 
  60   0.0000       0.303250         8.2518 
  61   0.0000       0.303250         8.2518 
  62   0.0000       0.393343        10.7034 
  63   0.0000       0.472206        12.8494 
  64   0.0000       0.472206        12.8494 
  65   0.0000       0.530733        14.4420 
  66   0.0000       0.530733        14.4420 
  67   0.0000       0.557157        15.1610 
  68   0.0000       0.557421        15.1682 
  69   0.0000       0.587108        15.9760 
  70   0.0000       0.587108        15.9760 
  71   0.0000       0.593965        16.1626 
  72   0.0000       0.618011        16.8169 
  73   0.0000       0.629786        17.1373 
  74   0.0000       0.630198        17.1486 
  75   0.0000       0.641393        17.4532 
  76   0.0000       0.684376        18.6228 
  77   0.0000       0.684376        18.6228 
  78   0.0000       0.706739        19.2313 
  79   0.0000       0.706739        19.2313 
  80   0.0000       0.757597        20.6153 
  81   0.0000       0.798619        21.7315 
  82   0.0000       0.798619        21.7315 
  83   0.0000       0.820503        22.3270 
  84   0.0000       0.820631        22.3305 
  85   0.0000       0.894187        24.3321 
  86   0.0000       0.924095        25.1459 
  87   0.0000       0.924095        25.1459 
  88   0.0000       1.012065        27.5397 
  89   0.0000       1.012202        27.5434 
  90   0.0000       1.243401        33.8347 
  91   0.0000       1.326382        36.0927 
  92   0.0000       1.326382        36.0927 
  93   0.0000       1.552962        42.2583 
  94   0.0000       1.783432        48.5296 
  95   0.0000       1.783432        48.5296 
  96   0.0000       1.805389        49.1271 
  97   0.0000       1.806054        49.1452 
  98   0.0000       1.828994        49.7695 
  99   0.0000       1.828994        49.7695 
 100   0.0000       1.839171        50.0464 
 101   0.0000       1.905969        51.8641 
 102   0.0000       1.917753        52.1847 
 103   0.0000       1.917753        52.1847 
 104   0.0000       1.968298        53.5601 
 105   0.0000       1.972894        53.6852 
 106   0.0000       2.013849        54.7996 
 107   0.0000       2.013849        54.7996 
 108   0.0000       2.025955        55.1290 
 109   0.0000       2.048323        55.7377 
 110   0.0000       2.048323        55.7377 
 111   0.0000       2.079079        56.5746 
 112   0.0000       2.081432        56.6386 
 113   0.0000       2.160893        58.8009 
 114   0.0000       2.197712        59.8028 
 115   0.0000       2.200069        59.8669 
 116   0.0000       2.211612        60.1810 
 117   0.0000       2.211612        60.1810 
 118   0.0000       2.244480        61.0754 
 119   0.0000       2.244480        61.0754 
 120   0.0000       2.392783        65.1109 
 121   0.0000       2.392835        65.1123 
 122   0.0000       2.395126        65.1747 
 123   0.0000       2.395126        65.1747 
 124   0.0000       2.536484        69.0212 
 125   0.0000       2.822372        76.8007 
 126   0.0000       2.822372        76.8007 
 127   0.0000       2.912395        79.2503 
 128   0.0000       3.124536        85.0230 
 129   0.0000       3.360446        91.4424 
 130   0.0000       3.361317        91.4661 
 131   0.0000       3.658631        99.5564 
 132   0.0000       3.658631        99.5564 
 133   0.0000       4.256007       115.8118 
 134   0.0000       4.788905       130.3127 
 135   0.0000       6.225246       169.3976 
 136   0.0000       6.225246       169.3976 
 137   0.0000       6.240923       169.8241 
 138   0.0000       6.243450       169.8929 
 139   0.0000       6.337044       172.4397 
 140   0.0000       6.337044       172.4397 
 141   0.0000       6.500525       176.8883 
 142   0.0000       6.692472       182.1114 
 143   0.0000       6.692835       182.1213 
 144   0.0000       6.700117       182.3195 
 145   0.0000       6.700117       182.3195 
 146   0.0000       6.763011       184.0309 
 147   0.0000       6.772974       184.3020 
 148   0.0000       6.920022       188.3034 
 149   0.0000       6.920022       188.3034 
 150   0.0000       7.019648       191.0143 
 151   0.0000       7.983875       217.2523 

                    ********************************
                    * MULLIKEN POPULATION ANALYSIS *
                    ********************************

--------------------------------------------
MULLIKEN ATOMIC CHARGES AND SPIN POPULATIONS
--------------------------------------------
   0 Cr:    0.079618    4.903591
   1 Br:   -0.079618    0.096409
Sum of atomic charges         :   -0.0000000
Sum of atomic spin populations:    5.0000000

-----------------------------------------------------
MULLIKEN REDUCED ORBITAL CHARGES AND SPIN POPULATIONS
-----------------------------------------------------
CHARGE
  0 Crs       :     6.698528  s :     6.698528
      pz      :     4.101635  p :    12.271559
      px      :     4.084962
      py      :     4.084962
      dz2     :     0.809456  d :     4.914431
      dxz     :     1.056578
      dyz     :     1.056578
      dx2y2   :     0.995907
      dxy     :     0.995913
      f0      :     0.006478  f :     0.032346
      f+1     :     0.012950
      f-1     :     0.012950
      f+2     :    -0.000017
      f-2     :    -0.000015
      f+3     :     0.000000
      f-3     :     0.000000
      g0      :     0.000833  g :     0.003518
      g+1     :     0.001309
      g-1     :     0.001309
      g+2     :     0.000034
      g-2     :     0.000033
      g+3     :     0.000000
      g-3     :     0.000000
      g+4     :     0.000000
      g-4     :     0.000000
  1 Brs       :     7.936221  s :     7.936221
      pz      :     5.444344  p :    17.106899
      px      :     5.831277
      py      :     5.831277
      dz2     :     2.002442  d :    10.034211
      dxz     :     2.012815
      dyz     :     2.012815
      dx2y2   :     2.003078
      dxy     :     2.003061
      f0      :     0.000064  f :     0.002287
      f+1     :     0.000108
      f-1     :     0.000108
      f+2     :     0.000998
      f-2     :     0.001008
      f+3     :     0.000000
      f-3     :     0.000000

SPIN
  0 Crs       :     0.440190  s :     0.440190
      pz      :     0.008667  p :     0.091343
      px      :     0.041338
      py      :     0.041338
      dz2     :     0.580475  d :     4.373957
      dxz     :     0.900834
      dyz     :     0.900834
      dx2y2   :     0.995904
      dxy     :     0.995909
      f0      :    -0.000740  f :    -0.001302
      f+1     :    -0.000251
      f-1     :    -0.000251
      f+2     :    -0.000030
      f-2     :    -0.000030
      f+3     :     0.000000
      f-3     :     0.000000
      g0      :    -0.000160  g :    -0.000598
      g+1     :    -0.000248
      g-1     :    -0.000248
      g+2     :     0.000029
      g-2     :     0.000028
      g+3     :     0.000000
      g-3     :     0.000000
      g+4     :     0.000000
      g-4     :     0.000000
  1 Brs       :     0.021411  s :     0.021411
      pz      :    -0.052293  p :     0.051104
      px      :     0.051699
      py      :     0.051699
      dz2     :     0.002724  d :     0.022476
      dxz     :     0.006784
      dyz     :     0.006784
      dx2y2   :     0.003100
      dxy     :     0.003085
      f0      :    -0.000273  f :     0.001418
      f+1     :    -0.000157
      f-1     :    -0.000157
      f+2     :     0.000997
      f-2     :     0.001007
      f+3     :     0.000000
      f-3     :     0.000000


                     *******************************
                     * LOEWDIN POPULATION ANALYSIS *
                     *******************************

-------------------------------------------
LOEWDIN ATOMIC CHARGES AND SPIN POPULATIONS
-------------------------------------------
   0 Cr:   -0.262260    4.726507
   1 Br:    0.262260    0.273493

----------------------------------------------------
LOEWDIN REDUCED ORBITAL CHARGES AND SPIN POPULATIONS
----------------------------------------------------
CHARGE
  0 Crs       :     6.389398  s :     6.389398
      pz      :     4.211446  p :    12.433443
      px      :     4.110999
      py      :     4.110999
      dz2     :     0.965462  d :     5.111036
      dxz     :     1.093515
      dyz     :     1.093515
      dx2y2   :     0.979258
      dxy     :     0.979287
      f0      :     0.093903  f :     0.298111
      f+1     :     0.101573
      f-1     :     0.101573
      f+2     :     0.000533
      f-2     :     0.000531
      f+3     :     0.000000
      f-3     :     0.000000
      g0      :     0.009979  g :     0.030270
      g+1     :     0.010108
      g-1     :     0.010108
      g+2     :     0.000037
      g-2     :     0.000038
      g+3     :     0.000000
      g-3     :     0.000000
      g+4     :     0.000000
      g-4     :     0.000000
  1 Brs       :     7.447010  s :     7.447010
      pz      :     5.633697  p :    16.762274
      px      :     5.564289
      py      :     5.564289
      dz2     :     2.156819  d :    10.319618
      dxz     :     2.071592
      dyz     :     2.071592
      dx2y2   :     2.009820
      dxy     :     2.009795
      f0      :     0.092287  f :     0.208838
      f+1     :     0.047925
      f-1     :     0.047925
      f+2     :     0.010353
      f-2     :     0.010349
      f+3     :     0.000000
      f-3     :     0.000000

SPIN
  0 Crs       :     0.415174  s :     0.415174
      pz      :    -0.002653  p :     0.146771
      px      :     0.074712
      py      :     0.074712
      dz2     :     0.544094  d :     4.153197
      dxz     :     0.825288
      dyz     :     0.825288
      dx2y2   :     0.979249
      dxy     :     0.979278
      f0      :    -0.001242  f :     0.011584
      f+1     :     0.005970
      f-1     :     0.005970
      f+2     :     0.000444
      f-2     :     0.000442
      f+3     :     0.000000
      f-3     :     0.000000
      g0      :    -0.000470  g :    -0.000218
      g+1     :     0.000109
      g-1     :     0.000109
      g+2     :     0.000016
      g-2     :     0.000017
      g+3     :     0.000000
      g-3     :     0.000000
      g+4     :     0.000000
      g-4     :     0.000000
  1 Brs       :     0.026253  s :     0.026253
      pz      :     0.005282  p :     0.068102
      px      :     0.031410
      py      :     0.031410
      dz2     :     0.010386  d :     0.114660
      dxz     :     0.042211
      dyz     :     0.042211
      dx2y2   :     0.009939
      dxy     :     0.009914
      f0      :     0.003176  f :     0.064478
      f+1     :     0.020301
      f-1     :     0.020301
      f+2     :     0.010352
      f-2     :     0.010349
      f+3     :     0.000000
      f-3     :     0.000000


                      *****************************
                      * MAYER POPULATION ANALYSIS *
                      *****************************

  NA   - Mulliken gross atomic population
  ZA   - Total nuclear charge
  QA   - Mulliken gross atomic charge
  VA   - Mayer's total valence
  BVA  - Mayer's bonded valence
  FA   - Mayer's free valence

  ATOM       NA         ZA         QA         VA         BVA        FA
  0 Cr    23.9204    24.0000     0.0796     6.2292     1.7341     4.4951
  1 Br    35.0796    35.0000    -0.0796     1.7609     1.7341     0.0269

  Mayer bond orders larger than 0.100000
B(  0-Cr,  1-Br) :   1.7341 

-------
TIMINGS
-------

Total SCF time: 0 days 0 hours 0 min 3 sec 

Total time                  ....       3.278 sec
Sum of individual times     ....       3.129 sec  ( 95.4%)

Fock matrix formation       ....       2.688 sec  ( 82.0%)
  Split-RI-J                ....       2.207 sec  ( 82.1% of F)
  XC integration            ....       0.367 sec  ( 13.6% of F)
    Basis function eval.    ....       0.039 sec  ( 10.6% of XC)
    Density eval.           ....       0.048 sec  ( 13.2% of XC)
    XC-Functional eval.     ....       0.009 sec  (  2.4% of XC)
    XC-Potential eval.      ....       0.123 sec  ( 33.6% of XC)
Diagonalization             ....       0.080 sec  (  2.5%)
Density matrix formation    ....       0.011 sec  (  0.3%)
Population analysis         ....       0.007 sec  (  0.2%)
Initial guess               ....       0.129 sec  (  3.9%)
Orbital Transformation      ....       0.000 sec  (  0.0%)
Orbital Orthonormalization  ....       0.000 sec  (  0.0%)
DIIS solution               ....       0.028 sec  (  0.9%)
Grid generation             ....       0.185 sec  (  5.6%)


-------------------------------------------------------------------------------
                          DFT DISPERSION CORRECTION                            
                                                                               
                              DFTD3 V3.1  Rev 1                                
                          USING Becke-Johnson damping                          
-------------------------------------------------------------------------------
The TPSS functional is recognized
Active option DFTDOPT                   ...         4   

molecular C6(AA) [au] = 984.577856 


            DFT-D V3
 parameters
 s6 scaling factor         :     1.0000 
 a1 scaling factor         :     0.4535 
 s8 scaling factor         :     1.9435 
 a2 scaling factor         :     4.4752 
 ad hoc parameters k1-k3   :    16.0000     1.3333    -4.0000 

 Edisp/kcal,au: -1.228503193535  -0.001957744247 
 E6   /kcal   :  -0.396525607 
 E8   /kcal   :  -0.831977586 
 % E8         :  67.722867201 

-------------------------   ----------------
Dispersion correction           -0.001957744
-------------------------   ----------------


-------------------------   --------------------
FINAL SINGLE POINT ENERGY     -3618.644949808586
-------------------------   --------------------



           ************************************************************
           *        Program running with 24 parallel MPI-processes    *
           *              working on a common directory               *
           ************************************************************
------------------------------------------------------------------------------
                         ORCA SCF GRADIENT CALCULATION
------------------------------------------------------------------------------

Gradient of the Kohn-Sham DFT energy:
Kohn-Sham wavefunction type      ... UKS
Hartree-Fock exchange scaling    ...    0.000
Number of operators              ...    2
Number of atoms                  ...    2
Basis set dimensions             ...  152
Integral neglect threshold       ... 2.5e-11
Integral primitive cutoff        ... 2.5e-12

Nuclear repulsion gradient       ... done
One Electron Gradient            ... done
Pre-screening matrix             ... done
RI-J gradient                    ... done
Exchange-correlation gradient    ... done
Dispersion correction            ... done

------------------
CARTESIAN GRADIENT
------------------

   1   Cr  :   -0.000000006    0.000000002    0.146577470
   2   Br  :    0.000000004    0.000000002   -0.146089663

Difference to translation invariance:
           :   -0.0000000018    0.0000000037    0.0004878072

Norm of the cartesian gradient     ...    0.2069472013
RMS gradient                       ...    0.0844858411
MAX gradient                       ...    0.1465774697

-------
TIMINGS
-------

Total SCF gradient time            ...        4.680 sec

One electron gradient       ....       0.055 sec  (  1.2%)
Prescreening matrices       ....       3.694 sec  ( 78.9%)
RI-J Coulomb gradient       ....       0.307 sec  (  6.6%)
XC gradient                 ....       0.082 sec  (  1.8%)
------------------------------------------------------------------------------
                         ORCA GEOMETRY RELAXATION STEP
------------------------------------------------------------------------------

Reading the OPT-File                    .... done
Getting information on internals        .... done
Copying old internal coords+grads       .... done
Making the new internal coordinates     .... (new redundants).... done
Validating the new internal coordinates .... (new redundants).... done
Calculating the B-matrix                .... done
Calculating the G,G- and P matrices     .... done
Transforming gradient to internals      .... done
Projecting the internal gradient        .... done
Number of atoms                         ....   2
Number of internal coordinates          ....   1
Current Energy                          .... -3618.644949809 Eh
Current gradient norm                   ....     0.206947201 Eh/bohr
Maximum allowed component of the step   ....  0.300
Current trust radius                    ....  0.300
Evaluating the initial hessian          ....  (Almloef) done
Projecting the Hessian                  .... done
Forming the augmented Hessian           .... done
Diagonalizing the augmented Hessian     .... done
Last element of RFO vector              ....  0.997927924
Lowest eigenvalues of augmented Hessian:
 -0.009434905
Length of the computed step             ....  0.064475331
The final length of the internal step   ....  0.064475331
Converting the step to cartesian space:
 Initial RMS(Int)=    0.0644753312
Transforming coordinates:
 Iter   0:  RMS(Cart)=    0.0186124249 RMS(Int)=    0.0644753312
 Iter   1:  RMS(Cart)=    0.0000000000 RMS(Int)=    0.0000000000
done
Storing new coordinates                 .... done

                                .--------------------.
          ----------------------|Geometry convergence|-------------------------
          Item                value                   Tolerance       Converged
          ---------------------------------------------------------------------
          RMS gradient        0.1463335661            0.0001000000      NO
          MAX gradient        0.1463335661            0.0003000000      NO
          RMS step            0.0644753312            0.0020000000      NO
          MAX step            0.0644753312            0.0040000000      NO
          ........................................................
          Max(Bonds)      0.0341      Max(Angles)    0.00
          Max(Dihed)        0.00      Max(Improp)    0.00
          ---------------------------------------------------------------------

The optimization has not yet converged - more geometry cycles are needed


    ---------------------------------------------------------------------------
                         Redundant Internal Coordinates
                            (Angstroem and degrees)

        Definition                    Value    dE/dq     Step     New-Value
    ----------------------------------------------------------------------------
     1. B(Br  1,Cr  0)                2.0000 -0.146334  0.0341    2.0341   
    ----------------------------------------------------------------------------

         *************************************************************
         *                GEOMETRY OPTIMIZATION CYCLE   2            *
         *************************************************************
---------------------------------
CARTESIAN COORDINATES (ANGSTROEM)
---------------------------------
  Cr     0.000000    0.000000   -0.017059
  Br     0.000000    0.000000    2.017059

----------------------------
CARTESIAN COORDINATES (A.U.)
----------------------------
  NO LB      ZA    FRAG     MASS         X           Y           Z
   0 Cr   24.0000    0    52.000    0.000000    0.000000   -0.032238
   1 Br   35.0000    0    79.900    0.000000    0.000000    3.811690

--------------------------------
INTERNAL COORDINATES (ANGSTROEM)
--------------------------------
 Cr     0   0   0     0.000000000000     0.00000000     0.00000000
 Br     1   0   0     2.034118875761     0.00000000     0.00000000

---------------------------
INTERNAL COORDINATES (A.U.)
---------------------------
 Cr     0   0   0     0.000000000000     0.00000000     0.00000000
 Br     1   0   0     3.843927599028     0.00000000     0.00000000



           ************************************************************
           *        Program running with 24 parallel MPI-processes    *
           *              working on a common directory               *
           ************************************************************
 One Electron integrals                  ... done
 Pre-screening matrix                    ... done


           ************************************************************
           *        Program running with 24 parallel MPI-processes    *
           *              working on a common directory               *
           ************************************************************

Diagonalization of the overlap matrix:
Smallest eigenvalue                        ... 7.676e-05
Time for diagonalization                   ...    0.004 sec
Threshold for overlap eigenvalues          ... 1.000e-08
Number of eigenvalues below threshold      ... 0
Time for construction of square roots      ...    0.003 sec
Total time needed                          ...    0.007 sec

-------------------
DFT GRID GENERATION
-------------------

General Integration Accuracy     IntAcc      ...  4.340
Radial Grid Type                 RadialGrid  ... Gauss-Chebyshev
Angular Grid (max. acc.)         AngularGrid ... Lebedev-110
Angular grid pruning method      GridPruning ... 3 (G Style)
Weight generation scheme         WeightScheme... Becke
Basis function cutoff            BFCut       ...    1.0000e-11
Integration weight cutoff        WCut        ...    1.0000e-14
Grids for H and He will be reduced by one unit

# of grid points (after initial pruning)     ...   5862 (   0.0 sec)
# of grid points (after weights+screening)   ...   5836 (   0.0 sec)
nearest neighbour list constructed           ...    0.0 sec
Grid point re-assignment to atoms done       ...    0.0 sec
Grid point division into batches done        ...    0.0 sec
Reduced shell lists constructed in    0.0 sec

Total number of grid points                  ...     5836
Total number of batches                      ...       92
Average number of points per batch           ...       63
Average number of grid points per atom       ...     2918
Average number of shells per batch           ...    25.60 (58.18%)
Average number of basis functions per batch  ...    81.60 (53.68%)
Average number of large shells per batch     ...    18.40 (71.88%)
Average number of large basis fcns per batch ...    56.80 (69.61%)
Maximum spatial batch extension              ...  18.98, 28.73, 16.15 au
Average spatial batch extension              ...   0.76,  1.04,  0.70 au

Time for grid setup =    0.027 sec

--------------
SCF ITERATIONS
--------------
ITER       Energy         Delta-E        Max-DP      RMS-DP      [F,P]     Damp
               ***  Starting incremental Fock matrix formation  ***
  0  -3618.6495759559   0.000000000000 0.00418898  0.00005898  0.0172918 0.7000
  1  -3618.6496464840  -0.000070528126 0.00317864  0.00004734  0.0121302 0.7000
                               ***Turning on DIIS***
  2  -3618.6496972363  -0.000050752352 0.00694979  0.00011075  0.0084944 0.0000
  3  -3618.6498117603  -0.000114523965 0.00244627  0.00004573  0.0013023 0.0000
  4  -3618.6498148978  -0.000003137507 0.00099499  0.00001435  0.0007445 0.0000
  5  -3618.6498159530  -0.000001055223 0.00124932  0.00001796  0.0006900 0.0000
  6  -3618.6498168259  -0.000000872907 0.00047219  0.00000552  0.0003837 0.0000
  7  -3618.6498171851  -0.000000359179 0.00010218  0.00000109  0.0000473 0.0000
  8  -3618.6498172708  -0.000000085654 0.00002067  0.00000050  0.0000250 0.0000
  9  -3618.6498172394   0.000000031346 0.00000914  0.00000015  0.0000082 0.0000
 10  -3618.6498172472  -0.000000007754 0.00000301  0.00000006  0.0000018 0.0000
                            ***DIIS convergence achieved***

               *****************************************************
               *                     SUCCESS                       *
               *           SCF CONVERGED AFTER  11 CYCLES          *
               *****************************************************

Setting up the final grid:

General Integration Accuracy     IntAcc      ...  4.670
Radial Grid Type                 RadialGrid  ... Gauss-Chebyshev
Angular Grid (max. acc.)         AngularGrid ... Lebedev-302
Angular grid pruning method      GridPruning ... 3 (G Style)
Weight generation scheme         WeightScheme... Becke
Basis function cutoff            BFCut       ...    1.0000e-11
Integration weight cutoff        WCut        ...    1.0000e-14
Grids for H and He will be reduced by one unit

# of grid points (after initial pruning)     ...  19280 (   0.0 sec)
# of grid points (after weights+screening)   ...  19251 (   0.0 sec)
nearest neighbour list constructed           ...    0.0 sec
Grid point re-assignment to atoms done       ...    0.0 sec
Grid point division into batches done        ...    0.1 sec
Reduced shell lists constructed in    0.1 sec

Total number of grid points                  ...    19251
Total number of batches                      ...      301
Average number of points per batch           ...       63
Average number of grid points per atom       ...     9626
Average number of shells per batch           ...    19.50 (44.32%)
Average number of basis functions per batch  ...    54.50 (35.86%)
Average number of large shells per batch     ...    11.64 (59.71%)
Average number of large basis fcns per batch ...    33.21 (60.94%)
Maximum spatial batch extension              ...  24.49, 24.19, 17.58 au
Average spatial batch extension              ...   0.85,  0.84,  0.67 au

Final grid set up in    0.2 sec
Final integration                            ... done (   0.1 sec)
Change in XC energy                          ...    -0.001782694
Integrated number of electrons               ...    59.000006179
Previous integrated no of electrons          ...    58.999780631
Total Energy       :        -3618.65159992 Eh          -98468.51608 eV
  Last Energy change         ...    2.3267e-08  Tolerance :   1.0000e-08
  Last MAX-Density change    ...    5.7597e-06  Tolerance :   1.0000e-07
             **** THE GBW FILE WAS UPDATED (22_CrBr.gbw) ****
             **** DENSITY FILE WAS UPDATED (22_CrBr.scfp) ****
             **** ENERGY FILE WAS UPDATED (22_CrBr.en.tmp) ****
----------------------
UHF SPIN CONTAMINATION
----------------------

Warning: in a DFT calculation there is little theoretical justification to 
         calculate <S**2> as in Hartree-Fock theory. We will do it anyways
         but you should keep in mind that the values have only limited relevance

Expectation value of <S**2>     :     8.767025
Ideal value S*(S+1) for S=2.5   :     8.750000
Deviation                       :     0.017025

             **** THE GBW FILE WAS UPDATED (22_CrBr.gbw) ****
             **** DENSITY FILE WAS UPDATED (22_CrBr.scfp) ****
Total SCF time: 0 days 0 hours 0 min 2 sec 


-------------------------------------------------------------------------------
                          DFT DISPERSION CORRECTION                            
                                                                               
                              DFTD3 V3.1  Rev 1                                
                          USING Becke-Johnson damping                          
-------------------------------------------------------------------------------
-------------------------   ----------------
Dispersion correction           -0.001957228
-------------------------   ----------------


-------------------------   --------------------
FINAL SINGLE POINT ENERGY     -3618.653557146004
-------------------------   --------------------



           ************************************************************
           *        Program running with 24 parallel MPI-processes    *
           *              working on a common directory               *
           ************************************************************
------------------------------------------------------------------------------
                         ORCA SCF GRADIENT CALCULATION
------------------------------------------------------------------------------

Gradient of the Kohn-Sham DFT energy:
Kohn-Sham wavefunction type      ... UKS
Hartree-Fock exchange scaling    ...    0.000
Number of operators              ...    2
Number of atoms                  ...    2
Basis set dimensions             ...  152
Integral neglect threshold       ... 2.5e-11
Integral primitive cutoff        ... 2.5e-12

Nuclear repulsion gradient       ... done
One Electron Gradient            ... done
Pre-screening matrix             ... done
RI-J gradient                    ... done
Exchange-correlation gradient    ... done
Dispersion correction            ... done

------------------
CARTESIAN GRADIENT
------------------

   1   Cr  :    0.000000009    0.000000004    0.121928333
   2   Br  :   -0.000000020   -0.000000004   -0.121653314

Difference to translation invariance:
           :   -0.0000000108   -0.0000000006    0.0002750186

Norm of the cartesian gradient     ...    0.1722383441
RMS gradient                       ...    0.0703160095
MAX gradient                       ...    0.1219283328

-------
TIMINGS
-------

Total SCF gradient time            ...        4.634 sec

One electron gradient       ....       0.052 sec  (  1.1%)
Prescreening matrices       ....       3.638 sec  ( 78.5%)
RI-J Coulomb gradient       ....       0.315 sec  (  6.8%)
XC gradient                 ....       0.071 sec  (  1.5%)
------------------------------------------------------------------------------
                         ORCA GEOMETRY RELAXATION STEP
------------------------------------------------------------------------------

Reading the OPT-File                    .... done
Getting information on internals        .... done
Copying old internal coords+grads       .... done
Making the new internal coordinates     .... (new redundants).... done
Validating the new internal coordinates .... (new redundants).... done
Calculating the B-matrix                .... done
Calculating the G,G- and P matrices     .... done
Transforming gradient to internals      .... done
Projecting the internal gradient        .... done
Number of atoms                         ....   2
Number of internal coordinates          ....   1
Current Energy                          .... -3618.653557146 Eh
Current gradient norm                   ....     0.172238344 Eh/bohr
Maximum allowed component of the step   ....  0.300
Current trust radius                    ....  0.300
Updating the Hessian (BFGS)             .... done
Forming the augmented Hessian           .... done
Diagonalizing the augmented Hessian     .... done
Last element of RFO vector              ....  0.959767676
Lowest eigenvalues of augmented Hessian:
 -0.035631844
Length of the computed step             ....  0.292565919
The final length of the internal step   ....  0.292565919
Converting the step to cartesian space:
 Initial RMS(Int)=    0.2925659192
Transforming coordinates:
 Iter   0:  RMS(Cart)=    0.0577350269 RMS(Int)=    0.2000000000
 Iter   1:  RMS(Cart)=    0.0267214792 RMS(Int)=    0.0925659192
 Iter   2:  RMS(Cart)=    0.0000000000 RMS(Int)=    0.0000000000
done
Storing new coordinates                 .... done

                                .--------------------.
          ----------------------|Geometry convergence|-------------------------
          Item                value                   Tolerance       Converged
          ---------------------------------------------------------------------
          Energy change      -0.0086073374            0.0000050000      NO
          RMS gradient        0.1217908235            0.0001000000      NO
          MAX gradient        0.1217908235            0.0003000000      NO
          RMS step            0.2925659192            0.0020000000      NO
          MAX step            0.2925659192            0.0040000000      NO
          ........................................................
          Max(Bonds)      0.1548      Max(Angles)    0.00
          Max(Dihed)        0.00      Max(Improp)    0.00
          ---------------------------------------------------------------------

The optimization has not yet converged - more geometry cycles are needed


    ---------------------------------------------------------------------------
                         Redundant Internal Coordinates
                            (Angstroem and degrees)

        Definition                    Value    dE/dq     Step     New-Value
    ----------------------------------------------------------------------------
     1. B(Br  1,Cr  0)                2.0341 -0.121791  0.1548    2.1889   
    ----------------------------------------------------------------------------

         *************************************************************
         *                GEOMETRY OPTIMIZATION CYCLE   3            *
         *************************************************************
---------------------------------
CARTESIAN COORDINATES (ANGSTROEM)
---------------------------------
  Cr     0.000000    0.000000   -0.094469
  Br     0.000000    0.000000    2.094469

----------------------------
CARTESIAN COORDINATES (A.U.)
----------------------------
  NO LB      ZA    FRAG     MASS         X           Y           Z
   0 Cr   24.0000    0    52.000    0.000000    0.000000   -0.178521
   1 Br   35.0000    0    79.900    0.000000    0.000000    3.957973

--------------------------------
INTERNAL COORDINATES (ANGSTROEM)
--------------------------------
 Cr     0   0   0     0.000000000000     0.00000000     0.00000000
 Br     1   0   0     2.188938092137     0.00000000     0.00000000

---------------------------
INTERNAL COORDINATES (A.U.)
---------------------------
 Cr     0   0   0     0.000000000000     0.00000000     0.00000000
 Br     1   0   0     4.136493518246     0.00000000     0.00000000



           ************************************************************
           *        Program running with 24 parallel MPI-processes    *
           *              working on a common directory               *
           ************************************************************
 One Electron integrals                  ... done
 Pre-screening matrix                    ... done


           ************************************************************
           *        Program running with 24 parallel MPI-processes    *
           *              working on a common directory               *
           ************************************************************

Diagonalization of the overlap matrix:
Smallest eigenvalue                        ... 8.645e-05
Time for diagonalization                   ...    0.005 sec
Threshold for overlap eigenvalues          ... 1.000e-08
Number of eigenvalues below threshold      ... 0
Time for construction of square roots      ...    0.002 sec
Total time needed                          ...    0.008 sec

-------------------
DFT GRID GENERATION
-------------------

General Integration Accuracy     IntAcc      ...  4.340
Radial Grid Type                 RadialGrid  ... Gauss-Chebyshev
Angular Grid (max. acc.)         AngularGrid ... Lebedev-110
Angular grid pruning method      GridPruning ... 3 (G Style)
Weight generation scheme         WeightScheme... Becke
Basis function cutoff            BFCut       ...    1.0000e-11
Integration weight cutoff        WCut        ...    1.0000e-14
Grids for H and He will be reduced by one unit

# of grid points (after initial pruning)     ...   5862 (   0.0 sec)
# of grid points (after weights+screening)   ...   5837 (   0.0 sec)
nearest neighbour list constructed           ...    0.0 sec
Grid point re-assignment to atoms done       ...    0.0 sec
Grid point division into batches done        ...    0.0 sec
Reduced shell lists constructed in    0.0 sec

Total number of grid points                  ...     5837
Total number of batches                      ...       92
Average number of points per batch           ...       63
Average number of grid points per atom       ...     2918
Average number of shells per batch           ...    24.80 (56.36%)
Average number of basis functions per batch  ...    80.00 (52.63%)
Average number of large shells per batch     ...    18.00 (72.58%)
Average number of large basis fcns per batch ...    54.00 (67.50%)
Maximum spatial batch extension              ...  18.98, 28.73, 16.39 au
Average spatial batch extension              ...   0.76,  1.04,  0.71 au

Time for grid setup =    0.028 sec

--------------
SCF ITERATIONS
--------------
ITER       Energy         Delta-E        Max-DP      RMS-DP      [F,P]     Damp
               ***  Starting incremental Fock matrix formation  ***
  0  -3618.6687179894   0.000000000000 0.01501058  0.00023032  0.0735461 0.7000
  1  -3618.6698270201  -0.001109030745 0.01163372  0.00019075  0.0515276 0.7000
                               ***Turning on DIIS***
  2  -3618.6706307773  -0.000803757112 0.02580195  0.00045824  0.0360399 0.0000
  3  -3618.6724450442  -0.001814266949 0.00961500  0.00017696  0.0052926 0.0000
  4  -3618.6725009654  -0.000055921220 0.00211342  0.00003267  0.0030027 0.0000
  5  -3618.6725282020  -0.000027236553 0.00300830  0.00005520  0.0011701 0.0000
  6  -3618.6725321266  -0.000003924578 0.00229698  0.00002324  0.0005864 0.0000
  7  -3618.6725340293  -0.000001902781 0.00022038  0.00000427  0.0002647 0.0000
  8  -3618.6725341687  -0.000000139393 0.00016963  0.00000210  0.0000930 0.0000
  9  -3618.6725342267  -0.000000058021 0.00004463  0.00000089  0.0000416 0.0000
 10  -3618.6725341732   0.000000053545 0.00003460  0.00000032  0.0000101 0.0000
 11  -3618.6725341930  -0.000000019764 0.00000852  0.00000010  0.0000118 0.0000
 12  -3618.6725342054  -0.000000012395 0.00000323  0.00000006  0.0000032 0.0000
                 **** Energy Check signals convergence ****

               *****************************************************
               *                     SUCCESS                       *
               *           SCF CONVERGED AFTER  13 CYCLES          *
               *****************************************************

Setting up the final grid:

General Integration Accuracy     IntAcc      ...  4.670
Radial Grid Type                 RadialGrid  ... Gauss-Chebyshev
Angular Grid (max. acc.)         AngularGrid ... Lebedev-302
Angular grid pruning method      GridPruning ... 3 (G Style)
Weight generation scheme         WeightScheme... Becke
Basis function cutoff            BFCut       ...    1.0000e-11
Integration weight cutoff        WCut        ...    1.0000e-14
Grids for H and He will be reduced by one unit

# of grid points (after initial pruning)     ...  19280 (   0.0 sec)
# of grid points (after weights+screening)   ...  19252 (   0.0 sec)
nearest neighbour list constructed           ...    0.0 sec
Grid point re-assignment to atoms done       ...    0.0 sec
Grid point division into batches done        ...    0.1 sec
Reduced shell lists constructed in    0.1 sec

Total number of grid points                  ...    19252
Total number of batches                      ...      302
Average number of points per batch           ...       63
Average number of grid points per atom       ...     9626
Average number of shells per batch           ...    18.79 (42.69%)
Average number of basis functions per batch  ...    51.50 (33.88%)
Average number of large shells per batch     ...    11.07 (58.94%)
Average number of large basis fcns per batch ...    31.50 (61.17%)
Maximum spatial batch extension              ...  24.49, 24.19, 17.73 au
Average spatial batch extension              ...   0.84,  0.83,  0.67 au

Final grid set up in    0.2 sec
Final integration                            ... done (   0.1 sec)
Change in XC energy                          ...    -0.002020867
Integrated number of electrons               ...    59.000007009
Previous integrated no of electrons          ...    58.999657074
Total Energy       :        -3618.67455506 Eh          -98469.14072 eV
  Last Energy change         ...    8.0699e-09  Tolerance :   1.0000e-08
  Last MAX-Density change    ...    1.7539e-06  Tolerance :   1.0000e-07
             **** THE GBW FILE WAS UPDATED (22_CrBr.gbw) ****
             **** DENSITY FILE WAS UPDATED (22_CrBr.scfp) ****
             **** ENERGY FILE WAS UPDATED (22_CrBr.en.tmp) ****
----------------------
UHF SPIN CONTAMINATION
----------------------

Warning: in a DFT calculation there is little theoretical justification to 
         calculate <S**2> as in Hartree-Fock theory. We will do it anyways
         but you should keep in mind that the values have only limited relevance

Expectation value of <S**2>     :     8.769185
Ideal value S*(S+1) for S=2.5   :     8.750000
Deviation                       :     0.019185

             **** THE GBW FILE WAS UPDATED (22_CrBr.gbw) ****
             **** DENSITY FILE WAS UPDATED (22_CrBr.scfp) ****
Total SCF time: 0 days 0 hours 0 min 3 sec 


-------------------------------------------------------------------------------
                          DFT DISPERSION CORRECTION                            
                                                                               
                              DFTD3 V3.1  Rev 1                                
                          USING Becke-Johnson damping                          
-------------------------------------------------------------------------------
-------------------------   ----------------
Dispersion correction           -0.001956545
-------------------------   ----------------


-------------------------   --------------------
FINAL SINGLE POINT ENERGY     -3618.676511608551
-------------------------   --------------------



           ************************************************************
           *        Program running with 24 parallel MPI-processes    *
           *              working on a common directory               *
           ************************************************************
------------------------------------------------------------------------------
                         ORCA SCF GRADIENT CALCULATION
------------------------------------------------------------------------------

Gradient of the Kohn-Sham DFT energy:
Kohn-Sham wavefunction type      ... UKS
Hartree-Fock exchange scaling    ...    0.000
Number of operators              ...    2
Number of atoms                  ...    2
Basis set dimensions             ...  152
Integral neglect threshold       ... 2.5e-11
Integral primitive cutoff        ... 2.5e-12

Nuclear repulsion gradient       ... done
One Electron Gradient            ... done
Pre-screening matrix             ... done
RI-J gradient                    ... done
Exchange-correlation gradient    ... done
Dispersion correction            ... done

------------------
CARTESIAN GRADIENT
------------------

   1   Cr  :   -0.000000003   -0.000000004    0.042797423
   2   Br  :    0.000000001    0.000000010   -0.042593442

Difference to translation invariance:
           :   -0.0000000027    0.0000000058    0.0002039810

Norm of the cartesian gradient     ...    0.0603806318
[...]
 131   0.0000       3.399496        92.5050 
 132   0.0000       3.399496        92.5050 
 133   0.0000       4.029169       109.6393 
 134   0.0000       4.267241       116.1175 
 135   0.0000       6.036819       164.2702 
 136   0.0000       6.036819       164.2702 
 137   0.0000       6.041353       164.3936 
 138   0.0000       6.041476       164.3969 
 139   0.0000       6.085909       165.6060 
 140   0.0000       6.085909       165.6060 
 141   0.0000       6.229015       169.5001 
 142   0.0000       6.556586       178.4138 
 143   0.0000       6.556586       178.4138 
 144   0.0000       6.557231       178.4313 
 145   0.0000       6.558385       178.4627 
 146   0.0000       6.589768       179.3167 
 147   0.0000       6.596559       179.5015 
 148   0.0000       6.706942       182.5052 
 149   0.0000       6.706942       182.5052 
 150   0.0000       6.803843       185.1420 
 151   0.0000       7.648550       208.1276 

                 SPIN DOWN ORBITALS
  NO   OCC          E(Eh)            E(eV) 
   0   1.0000    -481.697407    -13107.6528 
   1   1.0000    -214.922318     -5848.3336 
   2   1.0000     -61.910322     -1684.6655 
   3   1.0000     -55.743897     -1516.8686 
   4   1.0000     -55.742630     -1516.8341 
   5   1.0000     -55.742630     -1516.8341 
   6   1.0000     -24.267560      -660.3539 
   7   1.0000     -20.582674      -560.0830 
   8   1.0000     -20.577228      -559.9349 
   9   1.0000     -20.577228      -559.9349 
  10   1.0000      -8.436996      -229.5823 
  11   1.0000      -6.276480      -170.7917 
  12   1.0000      -6.272307      -170.6781 
  13   1.0000      -6.272307      -170.6781 
  14   1.0000      -2.629227       -71.5449 
  15   1.0000      -2.445489       -66.5451 
  16   1.0000      -2.444066       -66.5064 
  17   1.0000      -2.444066       -66.5064 
  18   1.0000      -2.440992       -66.4228 
  19   1.0000      -2.440761       -66.4165 
  20   1.0000      -1.612198       -43.8701 
  21   1.0000      -1.596852       -43.4526 
  22   1.0000      -1.596852       -43.4526 
  23   1.0000      -0.666579       -18.1385 
  24   1.0000      -0.277508        -7.5514 
  25   1.0000      -0.241697        -6.5769 
  26   1.0000      -0.241697        -6.5769 
  27   0.0000      -0.097277        -2.6470 
  28   0.0000      -0.051461        -1.4003 
  29   0.0000      -0.045545        -1.2393 
  30   0.0000      -0.045545        -1.2393 
  31   0.0000      -0.040831        -1.1111 
  32   0.0000      -0.040658        -1.1064 
  33   0.0000      -0.002077        -0.0565 
  34   0.0000      -0.002077        -0.0565 
  35   0.0000       0.010314         0.2807 
  36   0.0000       0.015270         0.4155 
  37   0.0000       0.035232         0.9587 
  38   0.0000       0.035232         0.9587 
  39   0.0000       0.052425         1.4266 
  40   0.0000       0.058218         1.5842 
  41   0.0000       0.058355         1.5879 
  42   0.0000       0.060142         1.6365 
  43   0.0000       0.060142         1.6365 
  44   0.0000       0.068758         1.8710 
  45   0.0000       0.104255         2.8369 
  46   0.0000       0.104255         2.8369 
  47   0.0000       0.105605         2.8737 
  48   0.0000       0.134258         3.6533 
  49   0.0000       0.166069         4.5190 
  50   0.0000       0.166069         4.5190 
  51   0.0000       0.182743         4.9727 
  52   0.0000       0.188399         5.1266 
  53   0.0000       0.188407         5.1268 
  54   0.0000       0.193107         5.2547 
  55   0.0000       0.222663         6.0590 
  56   0.0000       0.222663         6.0590 
  57   0.0000       0.238224         6.4824 
  58   0.0000       0.238485         6.4895 
  59   0.0000       0.286257         7.7895 
  60   0.0000       0.295928         8.0526 
  61   0.0000       0.295928         8.0526 
  62   0.0000       0.343694         9.3524 
  63   0.0000       0.462004        12.5718 
  64   0.0000       0.462004        12.5718 
  65   0.0000       0.534055        14.5324 
  66   0.0000       0.534055        14.5324 
  67   0.0000       0.557019        15.1573 
  68   0.0000       0.557139        15.1605 
  69   0.0000       0.569603        15.4997 
  70   0.0000       0.580425        15.7942 
  71   0.0000       0.584305        15.8997 
  72   0.0000       0.584305        15.8997 
  73   0.0000       0.620018        16.8715 
  74   0.0000       0.620507        16.8849 
  75   0.0000       0.659959        17.9584 
  76   0.0000       0.659959        17.9584 
  77   0.0000       0.664406        18.0794 
  78   0.0000       0.727190        19.7879 
  79   0.0000       0.727190        19.7879 
  80   0.0000       0.735039        20.0014 
  81   0.0000       0.794652        21.6236 
  82   0.0000       0.796690        21.6790 
  83   0.0000       0.796690        21.6790 
  84   0.0000       0.825985        22.4762 
  85   0.0000       0.826587        22.4926 
  86   0.0000       0.836792        22.7703 
  87   0.0000       0.836792        22.7703 
  88   0.0000       0.947126        25.7726 
  89   0.0000       0.947710        25.7885 
  90   0.0000       1.050953        28.5979 
  91   0.0000       1.240721        33.7617 
  92   0.0000       1.240721        33.7617 
  93   0.0000       1.442383        39.2492 
  94   0.0000       1.741665        47.3931 
  95   0.0000       1.799699        48.9723 
  96   0.0000       1.799699        48.9723 
  97   0.0000       1.820580        49.5405 
  98   0.0000       1.820580        49.5405 
  99   0.0000       1.833522        49.8927 
 100   0.0000       1.834225        49.9118 
 101   0.0000       1.851619        50.3851 
 102   0.0000       1.900424        51.7132 
 103   0.0000       1.900424        51.7132 
 104   0.0000       1.970111        53.6094 
 105   0.0000       1.974439        53.7272 
 106   0.0000       1.974977        53.7419 
 107   0.0000       2.023589        55.0646 
 108   0.0000       2.023589        55.0646 
 109   0.0000       2.082578        56.6698 
 110   0.0000       2.086243        56.7696 
 111   0.0000       2.087249        56.7969 
 112   0.0000       2.097742        57.0825 
 113   0.0000       2.097742        57.0825 
 114   0.0000       2.120905        57.7128 
 115   0.0000       2.120905        57.7128 
 116   0.0000       2.186345        59.4935 
 117   0.0000       2.189715        59.5852 
 118   0.0000       2.204354        59.9835 
 119   0.0000       2.204354        59.9835 
 120   0.0000       2.284462        62.1634 
 121   0.0000       2.284571        62.1663 
 122   0.0000       2.354960        64.0817 
 123   0.0000       2.354960        64.0817 
 124   0.0000       2.396150        65.2026 
 125   0.0000       2.539244        69.0963 
 126   0.0000       2.573232        70.0212 
 127   0.0000       2.573232        70.0212 
 128   0.0000       2.916306        79.3567 
 129   0.0000       3.339689        90.8775 
 130   0.0000       3.339904        90.8834 
 131   0.0000       3.525178        95.9250 
 132   0.0000       3.525178        95.9250 
 133   0.0000       4.075468       110.8991 
 134   0.0000       4.328429       117.7825 
 135   0.0000       6.218155       169.2046 
 136   0.0000       6.218155       169.2046 
 137   0.0000       6.233087       169.6109 
 138   0.0000       6.233186       169.6136 
 139   0.0000       6.264394       170.4628 
 140   0.0000       6.264394       170.4628 
 141   0.0000       6.394816       174.0118 
 142   0.0000       6.682697       181.8454 
 143   0.0000       6.683580       181.8695 
 144   0.0000       6.685861       181.9315 
 145   0.0000       6.685861       181.9315 
 146   0.0000       6.713398       182.6808 
 147   0.0000       6.718745       182.8264 
 148   0.0000       6.822371       185.6462 
 149   0.0000       6.822371       185.6462 
 150   0.0000       6.916736       188.2140 
 151   0.0000       7.800536       212.2634 

                    ********************************
                    * MULLIKEN POPULATION ANALYSIS *
                    ********************************

--------------------------------------------
MULLIKEN ATOMIC CHARGES AND SPIN POPULATIONS
--------------------------------------------
   0 Cr:    0.225397    5.120168
   1 Br:   -0.225397   -0.120168
Sum of atomic charges         :   -0.0000000
Sum of atomic spin populations:    5.0000000

-----------------------------------------------------
MULLIKEN REDUCED ORBITAL CHARGES AND SPIN POPULATIONS
-----------------------------------------------------
CHARGE
  0 Crs       :     6.701154  s :     6.701154
      pz      :     4.100667  p :    12.207858
      px      :     4.053595
      py      :     4.053595
      dz2     :     0.789482  d :     4.841054
      dxz     :     1.027019
      dyz     :     1.027019
      dx2y2   :     0.998766
      dxy     :     0.998769
      f0      :     0.008000  f :     0.022933
      f+1     :     0.007371
      f-1     :     0.007371
      f+2     :     0.000096
      f-2     :     0.000095
      f+3     :     0.000000
      f-3     :     0.000000
      g0      :     0.000613  g :     0.001603
      g+1     :     0.000492
      g-1     :     0.000492
      g+2     :     0.000003
      g-2     :     0.000004
      g+3     :     0.000000
      g-3     :     0.000000
      g+4     :     0.000000
      g-4     :     0.000000
  1 Brs       :     7.942207  s :     7.942207
      pz      :     5.457907  p :    17.264501
      px      :     5.903297
      py      :     5.903297
      dz2     :     2.000258  d :    10.016622
      dxz     :     2.007460
      dyz     :     2.007460
      dx2y2   :     2.000725
      dxy     :     2.000719
      f0      :    -0.000288  f :     0.002068
      f+1     :     0.000766
      f-1     :     0.000766
      f+2     :     0.000409
      f-2     :     0.000414
      f+3     :     0.000000
      f-3     :     0.000000

SPIN
  0 Crs       :     0.494333  s :     0.494333
      pz      :     0.014643  p :     0.067079
      px      :     0.026218
      py      :     0.026218
      dz2     :     0.652032  d :     4.558576
      dxz     :     0.954504
      dyz     :     0.954504
      dx2y2   :     0.998766
      dxy     :     0.998769
      f0      :    -0.000316  f :     0.000499
      f+1     :     0.000315
      f-1     :     0.000315
      f+2     :     0.000094
      f-2     :     0.000091
      f+3     :     0.000000
      f-3     :     0.000000
      g0      :    -0.000178  g :    -0.000319
      g+1     :    -0.000073
      g-1     :    -0.000073
      g+2     :     0.000003
      g-2     :     0.000003
      g+3     :     0.000000
      g-3     :     0.000000
      g+4     :     0.000000
      g-4     :     0.000000
  1 Brs       :    -0.013320  s :    -0.013320
      pz      :    -0.146258  p :    -0.114194
      px      :     0.016032
      py      :     0.016032
      dz2     :    -0.000654  d :     0.006800
      dxz     :     0.003001
      dyz     :     0.003001
      dx2y2   :     0.000728
      dxy     :     0.000723
      f0      :    -0.000283  f :     0.000545
      f+1     :     0.000003
      f-1     :     0.000003
      f+2     :     0.000409
      f-2     :     0.000414
      f+3     :    -0.000000
      f-3     :    -0.000000


                     *******************************
                     * LOEWDIN POPULATION ANALYSIS *
                     *******************************

-------------------------------------------
LOEWDIN ATOMIC CHARGES AND SPIN POPULATIONS
-------------------------------------------
   0 Cr:   -0.087930    4.900808
   1 Br:    0.087930    0.099192

----------------------------------------------------
LOEWDIN REDUCED ORBITAL CHARGES AND SPIN POPULATIONS
----------------------------------------------------
CHARGE
  0 Crs       :     6.470636  s :     6.470636
      pz      :     4.182799  p :    12.354224
      px      :     4.085712
      py      :     4.085712
      dz2     :     0.917150  d :     5.045729
      dxz     :     1.070376
      dyz     :     1.070376
      dx2y2   :     0.993908
      dxy     :     0.993918
      f0      :     0.074888  f :     0.205242
      f+1     :     0.064863
      f-1     :     0.064863
      f+2     :     0.000316
      f-2     :     0.000312
      f+3     :     0.000000
      f-3     :     0.000000
      g0      :     0.005157  g :     0.012099
      g+1     :     0.003468
      g-1     :     0.003468
      g+2     :     0.000003
      g-2     :     0.000003
      g+3     :     0.000000
      g-3     :     0.000000
      g+4     :     0.000000
      g-4     :     0.000000
  1 Brs       :     7.594977  s :     7.594977
      pz      :     5.609687  p :    17.049731
      px      :     5.720022
      py      :     5.720022
      dz2     :     2.101518  d :    10.175534
      dxz     :     2.034094
      dyz     :     2.034094
      dx2y2   :     2.002917
      dxy     :     2.002910
      f0      :     0.043188  f :     0.091828
      f+1     :     0.021464
      f-1     :     0.021464
      f+2     :     0.002856
      f-2     :     0.002857
      f+3     :     0.000000
      f-3     :     0.000000

SPIN
  0 Crs       :     0.391326  s :     0.391326
      pz      :    -0.005713  p :     0.071099
      px      :     0.038406
      py      :     0.038406
      dz2     :     0.628171  d :     4.433995
      dxz     :     0.909001
      dyz     :     0.909001
      dx2y2   :     0.993906
      dxy     :     0.993915
      f0      :    -0.001813  f :     0.004706
      f+1     :     0.002963
      f-1     :     0.002963
      f+2     :     0.000298
      f-2     :     0.000294
      f+3     :     0.000000
      f-3     :     0.000000
      g0      :    -0.000504  g :    -0.000319
      g+1     :     0.000089
      g-1     :     0.000089
      g+2     :     0.000003
      g-2     :     0.000003
      g+3     :     0.000000
      g-3     :     0.000000
      g+4     :     0.000000
      g-4     :     0.000000
  1 Brs       :     0.014052  s :     0.014052
      pz      :    -0.038357  p :    -0.010240
      px      :     0.014058
      py      :     0.014058
      dz2     :     0.010871  d :     0.059582
      dxz     :     0.021422
      dyz     :     0.021422
      dx2y2   :     0.002937
      dxy     :     0.002931
      f0      :     0.001966  f :     0.035798
      f+1     :     0.014060
      f-1     :     0.014060
      f+2     :     0.002856
      f-2     :     0.002856
      f+3     :    -0.000000
      f-3     :    -0.000000


                      *****************************
                      * MAYER POPULATION ANALYSIS *
                      *****************************

  NA   - Mulliken gross atomic population
  ZA   - Total nuclear charge
  QA   - Mulliken gross atomic charge
  VA   - Mayer's total valence
  BVA  - Mayer's bonded valence
  FA   - Mayer's free valence

  ATOM       NA         ZA         QA         VA         BVA        FA
  0 Cr    23.7746    24.0000     0.2254     6.0721     1.1925     4.8796
  1 Br    35.2254    35.0000    -0.2254     1.2124     1.1925     0.0199

  Mayer bond orders larger than 0.100000
B(  0-Cr,  1-Br) :   1.1925 

-------
TIMINGS
-------

Total SCF time: 0 days 0 hours 0 min 1 sec 

Total time                  ....       1.820 sec
Sum of individual times     ....       1.643 sec  ( 90.3%)

Fock matrix formation       ....       1.384 sec  ( 76.1%)
  Split-RI-J                ....       1.018 sec  ( 73.5% of F)
  XC integration            ....       0.186 sec  ( 13.4% of F)
    Basis function eval.    ....       0.022 sec  ( 11.8% of XC)
    Density eval.           ....       0.028 sec  ( 15.2% of XC)
    XC-Functional eval.     ....       0.005 sec  (  2.8% of XC)
    XC-Potential eval.      ....       0.064 sec  ( 34.5% of XC)
Diagonalization             ....       0.040 sec  (  2.2%)
Density matrix formation    ....       0.006 sec  (  0.3%)
Population analysis         ....       0.007 sec  (  0.4%)
Initial guess               ....       0.014 sec  (  0.8%)
Orbital Transformation      ....       0.000 sec  (  0.0%)
Orbital Orthonormalization  ....       0.008 sec  (  0.5%)
DIIS solution               ....       0.011 sec  (  0.6%)
Grid generation             ....       0.181 sec  (  9.9%)


-------------------------------------------------------------------------------
                          DFT DISPERSION CORRECTION                            
                                                                               
                              DFTD3 V3.1  Rev 1                                
                          USING Becke-Johnson damping                          
-------------------------------------------------------------------------------
The TPSS functional is recognized
Active option DFTDOPT                   ...         4   

molecular C6(AA) [au] = 1000.724547 


            DFT-D V3
 parameters
 s6 scaling factor         :     1.0000 
 a1 scaling factor         :     0.4535 
 s8 scaling factor         :     1.9435 
 a2 scaling factor         :     4.4752 
 ad hoc parameters k1-k3   :    16.0000     1.3333    -4.0000 

 Edisp/kcal,au: -1.234247923064  -0.001966899055 
 E6   /kcal   :  -0.396081477 
 E8   /kcal   :  -0.838166446 
 % E8         :  67.909082998 

-------------------------   ----------------
Dispersion correction           -0.001966899
-------------------------   ----------------


-------------------------   --------------------
FINAL SINGLE POINT ENERGY     -3618.682025780534
-------------------------   --------------------

                                *** OPTIMIZATION RUN DONE ***

                            ***************************************
                            *     ORCA property calculations      *
                            ***************************************

                                    ---------------------
                                    Active property flags
                                    ---------------------
   (+) Dipole Moment


------------------------------------------------------------------------------
                       ORCA ELECTRIC PROPERTIES CALCULATION
------------------------------------------------------------------------------

Dipole Moment Calculation                       ... on
Quadrupole Moment Calculation                   ... off
Polarizability Calculation                      ... off
GBWName                                         ... 22_CrBr.gbw
Electron density file                           ... 22_CrBr.scfp
The origin for moment calculation is the CENTER OF MASS  = ( 0.000000,  0.000000  2.358196)

-------------
DIPOLE MOMENT
-------------
                                X             Y             Z
Electronic contribution:     -0.00000      -0.00000       1.35315
Nuclear contribution   :      0.00000       0.00000      -3.27761
                        -----------------------------------------
Total Dipole Moment    :     -0.00000      -0.00000      -1.92446
                        -----------------------------------------
Magnitude (a.u.)       :      1.92446
Magnitude (Debye)      :      4.89158



--------------------
Rotational spectrum 
--------------------
 
Rotational constants in cm-1:     0.000000     0.097406     0.097406 
Rotational constants in MHz :     0.000000  2920.152240  2920.152240 

 Dipole components along the rotational axes: 
x,y,z [a.u.] :    -1.924456    -0.000000    -0.000000 
x,y,z [Debye]:    -4.891579    -0.000000    -0.000000 

 

Timings for individual modules:

Sum of individual times         ...       94.749 sec (=   1.579 min)
GTO integral calculation        ...       34.482 sec (=   0.575 min)  36.4 %
SCF iterations                  ...       25.174 sec (=   0.420 min)  26.6 %
SCF Gradient evaluation         ...       34.858 sec (=   0.581 min)  36.8 %
Geometry relaxation             ...        0.235 sec (=   0.004 min)   0.2 %
                             ****ORCA TERMINATED NORMALLY****
TOTAL RUN TIME: 0 days 0 hours 1 minutes 35 seconds 790 msec
