
                                 *****************
                                 * O   R   C   A *
                                 *****************

           --- An Ab Initio, DFT and Semiempirical electronic structure package ---

                  #######################################################
                  #                        -***-                        #
                  #          Department of theory and spectroscopy      #
                  #               Directorship: Frank Neese             #
                  #        Max Planck Institute fuer Kohlenforschung    #
                  #                Kaiser Wilhelm Platz 1               #
                  #                 D-45470 Muelheim/Ruhr               #
                  #                      Germany                        #
                  #                                                     #
                  #                  All rights reserved                #
                  #                        -***-                        #
                  #######################################################


                         Program Version 4.2.0 -  RELEASE  -


 With contributions from (in alphabetic order):
   Daniel Aravena         : Magnetic Suceptibility
   Michael Atanasov       : Ab Initio Ligand Field Theory (pilot matlab implementation)
   Alexander A. Auer      : GIAO ZORA, VPT2
   Ute Becker             : Parallelization
   Giovanni Bistoni       : ED, misc. LED, open-shell LED, HFLED
   Martin Brehm           : Molecular dynamics
   Dmytro Bykov           : SCF Hessian
   Vijay G. Chilkuri      : MRCI spin determinant printing, contributions to CSF-ICE
   Dipayan Datta          : RHF DLPNO-CCSD density
   Achintya Kumar Dutta   : EOM-CC, STEOM-CC
   Dmitry Ganyushin       : Spin-Orbit,Spin-Spin,Magnetic field MRCI
   Miquel Garcia          : C-PCM Hessian, Gaussian charge scheme
   Yang Guo               : DLPNO-NEVPT2, CIM, IAO-localization
   Andreas Hansen         : Spin unrestricted coupled pair/coupled cluster methods
   Benjamin Helmich-Paris : CASSCF linear response (MC-RPA)
   Lee Huntington         : MR-EOM, pCC
   Robert Izsak           : Overlap fitted RIJCOSX, COSX-SCS-MP3, EOM
   Christian Kollmar      : KDIIS, OOCD, Brueckner-CCSD(T), CCSD density
   Simone Kossmann        : Meta GGA functionals, TD-DFT gradient, OOMP2, MP2 Hessian
   Martin Krupicka        : AUTO-CI
   Lucas Lang             : DCDCAS
   Dagmar Lenk            : GEPOL surface, SMD
   Dimitrios Liakos       : Extrapolation schemes; Compound Job, initial MDCI parallelization
   Dimitrios Manganas     : Further ROCIS development; embedding schemes
   Dimitrios Pantazis     : SARC Basis sets
   Taras Petrenko         : DFT Hessian,TD-DFT gradient, ASA, ECA, R-Raman, ABS, FL, XAS/XES, NRVS
   Peter Pinski           : DLPNO-MP2, DLPNO-MP2 Gradient
   Christoph Reimann      : Effective Core Potentials
   Marius Retegan         : Local ZFS, SOC
   Christoph Riplinger    : Optimizer, TS searches, QM/MM, DLPNO-CCSD(T), (RO)-DLPNO pert. Triples
   Tobias Risthaus        : Range-separated hybrids, TD-DFT gradient, RPA, STAB
   Michael Roemelt        : Original ROCIS implementation
   Masaaki Saitow         : Open-shell DLPNO-CCSD energy and density
   Barbara Sandhoefer     : DKH picture change effects
   Avijit Sen             : IP-ROCIS
   Kantharuban Sivalingam : CASSCF convergence, NEVPT2, FIC-MRCI
   Bernardo de Souza      : ESD, SOC TD-DFT
   Georgi Stoychev        : AutoAux, RI-MP2 NMR
   Willem Van den Heuvel  : Paramagnetic NMR
   Boris Wezisla          : Elementary symmetry handling
   Frank Wennmohs         : Technical directorship


 We gratefully acknowledge several colleagues who have allowed us to
 interface, adapt or use parts of their codes:
   Stefan Grimme, W. Hujo, H. Kruse,             : VdW corrections, initial TS optimization,
                  C. Bannwarth                     DFT functionals, gCP, sTDA/sTD-DF
   Ed Valeev, F. Pavosevic, A. Kumar             : LibInt (2-el integral package), F12 methods
   Garnet Chan, S. Sharma, J. Yang, R. Olivares  : DMRG
   Ulf Ekstrom                                   : XCFun DFT Library
   Mihaly Kallay                                 : mrcc  (arbitrary order and MRCC methods)
   Andreas Klamt, Michael Diedenhofen            : otool_cosmo (COSMO solvation model)
   Jiri Pittner, Ondrej Demel                    : Mk-CCSD
   Frank Weinhold                                : gennbo (NPA and NBO analysis)
   Christopher J. Cramer and Donald G. Truhlar   : smd solvation model
   Lars Goerigk                                  : TD-DFT with DH, B97 family of functionals
   V. Asgeirsson, H. Jonsson                     : NEB implementation
   FAccTs GmbH                                   : IRC, NEB, NEB-TS, Multilevel, MM, QM/MM, CI optimization
   S Lehtola, MJT Oliveira, MAL Marques          : LibXC Library


 Your calculation uses the libint2 library for the computation of 2-el integrals
 For citations please refer to: http://libint.valeyev.net

 Your ORCA version has been built with support for libXC version: 4.2.3
 For citations please refer to: https://tddft.org/programs/libxc/

 This ORCA versions uses:
   CBLAS   interface :  Fast vector & matrix operations
   LAPACKE interface :  Fast linear algebra routines
   SCALAPACK package :  Parallel linear algebra routines


Your calculation utilizes the atom-pairwise dispersion correction
with the Becke-Johnson damping scheme (D3BJ)
Cite in your paper:
S.Grimme, S.Ehrlich, L.Goerigk, J Comput Chem, (2011), 32, 1456–1465 
S.Grimme, J.Antony, S.Ehrlich and H.Krieg, J.Chem.Phys., 132, (2010), 154104 
   

----- Orbital basis set information -----
Your calculation utilizes the basis: aug-cc-pVTZ 
    H, B-Ne : Obtained from the ccRepo (grant-hill.group.shef.ac.uk/ccrepo) Feb. 2017
              R. A. Kendall, T. H. Dunning, Jr., R. J. Harrison, J. Chem. Phys. 96, 6796 (1992)
         He : Obtained from the ccRepo (grant-hill.group.shef.ac.uk/ccrepo) Feb. 2017
              D. E. Woon, T. H. Dunning, Jr., J. Chem. Phys. 100, 2975 (1994)
  Li-Be, Na : Obtained from the ccRepo (grant-hill.group.shef.ac.uk/ccrepo) Feb. 2017
              B. P. Prascher, D. E. Woon, K. A. Peterson, T. H. Dunning, Jr., A. K. Wilson, Theor. Chem. Acc. 128, 69 (2011)
         Mg : Obtained from the Peterson Research Group Website (tyr0.chem.wsu.edu/~kipeters) Feb. 2017
              B. P. Prascher, D. E. Woon, K. A. Peterson, T. H. Dunning, Jr., A. K. Wilson, Theor. Chem. Acc. 128, 69 (2011)
      Al-Ar : Obtained from the ccRepo (grant-hill.group.shef.ac.uk/ccrepo) Feb. 2017
              D. E. Woon, T. H. Dunning, Jr., J. Chem. Phys. 98, 1358 (1993)
      Sc-Zn : Obtained from the ccRepo (grant-hill.group.shef.ac.uk/ccrepo) Feb. 2017
              N. B. Balabanov, K. A. Peterson, J. Chem. Phys. 123, 064107 (2005)
              N. B. Balabanov, K. A. Peterson, J. Chem. Phys. 125, 074110 (2006)
      Ga-Kr : Obtained from the ccRepo (grant-hill.group.shef.ac.uk/ccrepo) Feb. 2017
              A. K. Wilson, D. E. Woon, K. A. Peterson, T. H. Dunning, Jr., J. Chem. Phys. 110, 7667 (1999)
     Ag, Au : Obtained from the Peterson Research Group Website (tyr0.chem.wsu.edu/~kipeters) Feb. 2017
              K. A. Peterson, C. Puzzarini, Theor. Chem. Acc. 114, 283 (2005)

----- AuxJ basis set information -----
Your calculation utilizes the auxiliary basis: def2/J
   F. Weigend, Phys. Chem. Chem. Phys. 8, 1057 (2006).

================================================================================
                                        WARNINGS
                       Please study these warnings very carefully!
================================================================================


WARNING: your system is open-shell and RHF/RKS was chosen
  ===> : WILL SWITCH to UHF/UKS


WARNING: Geometry Optimization
  ===> : Switching off AutoStart
         For restart on a previous wavefunction, please use MOREAD

INFO   : the flag for use of LIBINT has been found!

================================================================================
                                       INPUT FILE
================================================================================
NAME = 23_CrO.in
|  1> #
|  2> # 23_CrO tpss/aug-cc-pvtz
|  3> #
|  4> ! tpss d3bj aug-cc-pvtz def2/j opt xyzfile
|  5> 
|  6> *xyz 0 5
|  7> Cr 0.0 0.0 0.0
|  8> O 0.0 0.0 2.0
|  9> *
| 10> 
| 11> %pal
| 12> nprocs 24
| 13> end
| 14> 
| 15> 
| 16>                          ****END OF INPUT****
================================================================================

                       *****************************
                       * Geometry Optimization Run *
                       *****************************

Geometry optimization settings:
Update method            Update   .... BFGS
Choice of coordinates    CoordSys .... Z-matrix Internals
Initial Hessian          InHess   .... Almoef's Model

Convergence Tolerances:
Energy Change            TolE     ....  5.0000e-06 Eh
Max. Gradient            TolMAXG  ....  3.0000e-04 Eh/bohr
RMS Gradient             TolRMSG  ....  1.0000e-04 Eh/bohr
Max. Displacement        TolMAXD  ....  4.0000e-03 bohr
RMS Displacement         TolRMSD  ....  2.0000e-03 bohr
Strict Convergence                ....  False
------------------------------------------------------------------------------
                        ORCA OPTIMIZATION COORDINATE SETUP
------------------------------------------------------------------------------

The optimization will be done in new redundant internal coordinates
Making redundant internal coordinates   ...  (new redundants) done
Evaluating the initial hessian          ...  (Almloef) done
Evaluating the coordinates              ...  done
Calculating the B-matrix                .... done
Calculating the G-matrix                .... done
Diagonalizing the G-matrix              .... done
The first mode is                       ....    0
The number of degrees of freedom        ....    1

    -----------------------------------------------------------------
                    Redundant Internal Coordinates


    -----------------------------------------------------------------
         Definition                    Initial Value    Approx d2E/dq
    -----------------------------------------------------------------
      1. B(O   1,Cr  0)                  2.0000         0.602260   
    -----------------------------------------------------------------

Number of atoms                         .... 2
Number of degrees of freedom            .... 1

         *************************************************************
         *                GEOMETRY OPTIMIZATION CYCLE   1            *
         *************************************************************
---------------------------------
CARTESIAN COORDINATES (ANGSTROEM)
---------------------------------
  Cr     0.000000    0.000000    0.000000
  O      0.000000    0.000000    2.000000

----------------------------
CARTESIAN COORDINATES (A.U.)
----------------------------
  NO LB      ZA    FRAG     MASS         X           Y           Z
   0 Cr   24.0000    0    52.000    0.000000    0.000000    0.000000
   1 O     8.0000    0    15.999    0.000000    0.000000    3.779452

--------------------------------
INTERNAL COORDINATES (ANGSTROEM)
--------------------------------
 Cr     0   0   0     0.000000000000     0.00000000     0.00000000
 O      1   0   0     2.000000000000     0.00000000     0.00000000

---------------------------
INTERNAL COORDINATES (A.U.)
---------------------------
 Cr     0   0   0     0.000000000000     0.00000000     0.00000000
 O      1   0   0     3.779452267843     0.00000000     0.00000000

---------------------
BASIS SET INFORMATION
---------------------
There are 2 groups of distinct atoms

 Group   1 Type Cr  : 116s77p23d3f2g contracted to 8s7p5d3f2g pattern {19191919191911/151515151511/77711/111/11}
 Group   2 Type O   : 19s6p3d2f contracted to 5s4p3d2f pattern {88111/3111/111/11}

Atom   0Cr   basis set group =>   1
Atom   1O    basis set group =>   2
---------------------------------
AUXILIARY/J BASIS SET INFORMATION
---------------------------------
There are 2 groups of distinct atoms

 Group   1 Type Cr  : 19s5p5d3f3g contracted to 8s5p5d2f3g pattern {121111111/11111/11111/21/111}
 Group   2 Type O   : 12s5p4d2f1g contracted to 6s4p3d1f1g pattern {711111/2111/211/2/1}

Atom   0Cr   basis set group =>   1
Atom   1O    basis set group =>   2


           ************************************************************
           *        Program running with 24 parallel MPI-processes    *
           *              working on a common directory               *
           ************************************************************
------------------------------------------------------------------------------
                           ORCA GTO INTEGRAL CALCULATION
                           -- RI-GTO INTEGRALS CHOSEN --
------------------------------------------------------------------------------

                         BASIS SET STATISTICS AND STARTUP INFO

Gaussian basis set:
 # of primitive gaussian shells          ...  251
 # of primitive gaussian functions       ...  567
 # of contracted shells                  ...   39
 # of contracted basis functions         ...  139
 Highest angular momentum                ...    4
 Maximum contraction depth               ...   19
Auxiliary gaussian basis set:
 # of primitive gaussian shells          ...   59
 # of primitive gaussian functions       ...  177
 # of contracted shells                  ...   38
 # of contracted aux-basis functions     ...  138
 Highest angular momentum                ...    4
 Maximum contraction depth               ...   12
Ratio of auxiliary to basis functions    ...  0.99
Integral package used                  ... LIBINT
 One Electron integrals                  ... done
 Ordering auxiliary basis shells         ... done
 Integral threshhold             Thresh  ...  2.500e-11
 Primitive cut-off               TCut    ...  2.500e-12
 Pre-screening matrix                    ... done
 Shell pair data                         ... 
 Ordering of the shell pairs             ... done (   0.000 sec) 780 of 780 pairs
 Determination of significant pairs      ... done (   0.000 sec)
 Creation of shell pair data             ... done (   0.001 sec)
 Storage of shell pair data              ... done (   0.011 sec)
 Shell pair data done in (   0.012 sec)
 Computing two index integrals           ... done
 Cholesky decomposition of the V-matrix  ... done


Timings:
 Total evaluation time                   ...   2.184 sec (  0.036 min)
 One electron matrix time                ...   0.043 sec (  0.001 min) =  2.0%
 Schwartz matrix evaluation time         ...   2.101 sec (  0.035 min) = 96.2%
 Two index repulsion integral time       ...   0.001 sec (  0.000 min) =  0.0%
 Cholesky decomposition of V             ...   0.001 sec (  0.000 min) =  0.0%
 Three index repulsion integral time     ...   0.000 sec (  0.000 min) =  0.0%



           ************************************************************
           *        Program running with 24 parallel MPI-processes    *
           *              working on a common directory               *
           ************************************************************
-------------------------------------------------------------------------------
                                 ORCA SCF
-------------------------------------------------------------------------------

------------
SCF SETTINGS
------------
Hamiltonian:
 Density Functional     Method          .... DFT(GTOs)
 Exchange Functional    Exchange        .... TPSS
 Correlation Functional Correlation     .... TPSS
 LDA part of GGA corr.  LDAOpt          .... PW91-LDA
 Gradients option       PostSCFGGA      .... off
   Density functional embedding theory  .... OFF
   NL short-range parameter             ....  5.000000
 RI-approximation to the Coulomb term is turned on
   Number of auxiliary basis functions  .... 138


General Settings:
 Integral files         IntName         .... 23_CrO
 Hartree-Fock type      HFTyp           .... UHF
 Total Charge           Charge          ....    0
 Multiplicity           Mult            ....    5
 Number of Electrons    NEL             ....   32
 Basis Dimension        Dim             ....  139
 Nuclear Repulsion      ENuc            ....     50.8010119968 Eh

Convergence Acceleration:
 DIIS                   CNVDIIS         .... on
   Start iteration      DIISMaxIt       ....    12
   Startup error        DIISStart       ....  0.200000
   # of expansion vecs  DIISMaxEq       ....     5
   Bias factor          DIISBfac        ....   1.050
   Max. coefficient     DIISMaxC        ....  10.000
 Newton-Raphson         CNVNR           .... off
 SOSCF                  CNVSOSCF        .... off
 Level Shifting         CNVShift        .... on
   Level shift para.    LevelShift      ....    0.2500
   Turn off err/grad.   ShiftErr        ....    0.0010
 Zerner damping         CNVZerner       .... off
 Static damping         CNVDamp         .... on
   Fraction old density DampFac         ....    0.7000
   Max. Damping (<1)    DampMax         ....    0.9800
   Min. Damping (>=0)   DampMin         ....    0.0000
   Turn off err/grad.   DampErr         ....    0.1000
 Fernandez-Rico         CNVRico         .... off

SCF Procedure:
 Maximum # iterations   MaxIter         ....   125
 SCF integral mode      SCFMode         .... Direct
   Integral package                     .... LIBINT
 Reset frequency        DirectResetFreq ....    20
 Integral Threshold     Thresh          ....  2.500e-11 Eh
 Primitive CutOff       TCut            ....  2.500e-12 Eh

Convergence Tolerance:
 Convergence Check Mode ConvCheckMode   .... Total+1el-Energy
 Convergence forced     ConvForced      .... 0
 Energy Change          TolE            ....  1.000e-08 Eh
 1-El. energy change                    ....  1.000e-05 Eh
 DIIS Error             TolErr          ....  5.000e-07


Diagonalization of the overlap matrix:
Smallest eigenvalue                        ... 8.998e-05
Time for diagonalization                   ...    0.004 sec
Threshold for overlap eigenvalues          ... 1.000e-08
Number of eigenvalues below threshold      ... 0
Time for construction of square roots      ...    0.003 sec
Total time needed                          ...    0.007 sec

-------------------
DFT GRID GENERATION
-------------------

General Integration Accuracy     IntAcc      ...  4.340
Radial Grid Type                 RadialGrid  ... Gauss-Chebyshev
Angular Grid (max. acc.)         AngularGrid ... Lebedev-110
Angular grid pruning method      GridPruning ... 3 (G Style)
Weight generation scheme         WeightScheme... Becke
Basis function cutoff            BFCut       ...    1.0000e-11
Integration weight cutoff        WCut        ...    1.0000e-14
Grids for H and He will be reduced by one unit

# of grid points (after initial pruning)     ...   4688 (   0.0 sec)
# of grid points (after weights+screening)   ...   4665 (   0.0 sec)
nearest neighbour list constructed           ...    0.0 sec
Grid point re-assignment to atoms done       ...    0.0 sec
Grid point division into batches done        ...    0.0 sec
Reduced shell lists constructed in    0.0 sec

Total number of grid points                  ...     4665
Total number of batches                      ...       74
Average number of points per batch           ...       63
Average number of grid points per atom       ...     2332
Average number of shells per batch           ...    22.00 (56.41%)
Average number of basis functions per batch  ...    69.20 (49.78%)
Average number of large shells per batch     ...    17.20 (78.18%)
Average number of large basis fcns per batch ...    52.40 (75.72%)
Maximum spatial batch extension              ...  18.98, 28.73, 16.15 au
Average spatial batch extension              ...   0.94,  1.30,  0.87 au

Time for grid setup =    0.026 sec

------------------------------
INITIAL GUESS: MODEL POTENTIAL
------------------------------
Loading Hartree-Fock densities                     ... done
Calculating cut-offs                               ... done
Setting up the integral package                    ... done
Initializing the effective Hamiltonian             ... done
Starting the Coulomb interaction                   ... done (   0.0 sec)
Reading the grid                                   ... done
Mapping shells                                     ... done
Starting the XC term evaluation                    ... done (   0.0 sec)
  promolecular density results
     # of electrons  =     32.000288488
     EX              =    -55.243156678
     EC              =     -1.267120385
     EX+EC           =    -56.510277063
Transforming the Hamiltonian                       ... done (   0.0 sec)
Diagonalizing the Hamiltonian                      ... done (   0.0 sec)
Back transforming the eigenvectors                 ... done (   0.0 sec)
Now organizing SCF variables                       ... done
                      ------------------
                      INITIAL GUESS DONE (   0.1 sec)
                      ------------------
--------------
SCF ITERATIONS
--------------
ITER       Energy         Delta-E        Max-DP      RMS-DP      [F,P]     Damp
               ***  Starting incremental Fock matrix formation  ***
  0  -1119.2473555086   0.000000000000 0.26655465  0.00393033  0.5609324 0.7000
  1  -1119.2371015324   0.010253976226 0.28941076  0.00402993  0.2733385 0.7000
                               ***Turning on DIIS***
  2  -1119.4182386278  -0.181137095413 0.16007362  0.00185338  0.1257165 0.7000
  3  -1119.4390056422  -0.020767014369 0.08139995  0.00108952  0.1497892 0.7000
  4  -1119.4898695727  -0.050863930546 0.07040399  0.00099903  0.1654791 0.7000
  5  -1119.5633048047  -0.073435232007 0.06894583  0.00079934  0.1092322 0.7000
  6  -1119.6126161823  -0.049311377548 0.20343561  0.00241360  0.0683729 0.0000
  7  -1119.7122410804  -0.099624898148 0.04585318  0.00068496  0.0289450 0.0000
  8  -1119.7151867912  -0.002945710733 0.03371001  0.00036879  0.0453795 0.0000
  9  -1119.7166296699  -0.001442878745 0.02488285  0.00023647  0.0489548 0.0000
 10  -1119.7173788620  -0.000749192116 0.01760204  0.00016465  0.0510482 0.0000
 11  -1119.7178822461  -0.000503384066 0.02174168  0.00029453  0.0518401 0.0000
 12  -1119.7171142667   0.000767979399 0.05764345  0.00099678  0.0545943 0.0000
 13  -1119.7100503604   0.007063906347 0.02198541  0.00041561  0.0914692 0.0000
 14  -1119.7193676319  -0.009317271518 0.03487419  0.00061520  0.0509957 0.0000
 15  -1119.7240317594  -0.004664127535 0.02951311  0.00022040  0.0175928 0.0000
 16  -1119.7252426278  -0.001210868344 0.02114557  0.00014731  0.0041474 0.0000
 17  -1119.7257031381  -0.000460510388 0.01540501  0.00010757  0.0091954 0.0000
 18  -1119.7259427989  -0.000239660798 0.01211157  0.00008136  0.0116389 0.0000
 19  -1119.7259448807  -0.000002081791 0.00926739  0.00005993  0.0154543 0.0000
               *** Restarting incremental Fock matrix formation ***
                                   *** Resetting DIIS ***
 20  -1119.7257238674   0.000221013308 0.04361753  0.00075210  0.0204817 0.0000
 21  -1119.7218493431   0.003874524329 0.02755772  0.00053207  0.0470088 0.0000
 22  -1119.7251491597  -0.003299816613 0.01081332  0.00010553  0.0274955 0.0000
 23  -1119.7261764475  -0.001027287769 0.01107446  0.00008490  0.0151488 0.0000
 24  -1119.7265871948  -0.000410747279 0.00830360  0.00005475  0.0051334 0.0000
 25  -1119.7266725960  -0.000085401291 0.02493757  0.00015670  0.0009743 0.0000
 26  -1119.7265776732   0.000094922852 0.00018144  0.00000366  0.0101526 0.0000
 27  -1119.7265758460   0.000001827179 0.00009508  0.00000158  0.0102109 0.0000
 28  -1119.7265689343   0.000006911714 0.00012373  0.00000167  0.0103941 0.0000
 29  -1119.7265603989   0.000008535422 0.00013136  0.00000251  0.0106143 0.0000
 30  -1119.7265538174   0.000006581437 0.01977098  0.00034465  0.0107785 0.0000
 31  -1119.7258635204   0.000690297009 0.01287964  0.00025026  0.0208170 0.0000
 32  -1119.7264385146  -0.000574994142 0.00257580  0.00004035  0.0130525 0.0000
 33  -1119.7266267797  -0.000188265151 0.00298349  0.00003058  0.0084380 0.0000
 34  -1119.7267282399  -0.000101460181 0.00256046  0.00001940  0.0044750 0.0000
 35  -1119.7267616985  -0.000033458560 0.00195469  0.00001306  0.0019367 0.0000
 36  -1119.7267695067  -0.000007808234 0.00549002  0.00003434  0.0005883 0.0000
 37  -1119.7267651583   0.000004348429 0.00003126  0.00000057  0.0021216 0.0000
 38  -1119.7267656109  -0.000000452675 0.00002836  0.00000035  0.0020600 0.0000
 39  -1119.7267659838  -0.000000372888 0.00002012  0.00000024  0.0020080 0.0000
               *** Restarting incremental Fock matrix formation ***
                                   *** Resetting DIIS ***
 40  -1119.7267661089  -0.000000125055 0.00389233  0.00006699  0.0019728 0.0000
 41  -1119.7267286650   0.000037443866 0.00270109  0.00005036  0.0047155 0.0000
 42  -1119.7267571655  -0.000028500481 0.00052916  0.00000853  0.0029136 0.0000
 43  -1119.7267662001  -0.000009034552 0.00062565  0.00000655  0.0018981 0.0000
 44  -1119.7267711163  -0.000004916202 0.00224255  0.00001449  0.0009900 0.0000
 45  -1119.7267722216  -0.000001105309 0.00041267  0.00000466  0.0007777 0.0000
 46  -1119.7267732916  -0.000001070076 0.00022648  0.00000254  0.0001097 0.0000
 47  -1119.7267732976  -0.000000006000 0.00015624  0.00000236  0.0000824 0.0000
 48  -1119.7267733413  -0.000000043607 0.00007071  0.00000143  0.0000528 0.0000
 49  -1119.7267733582  -0.000000016947 0.00017543  0.00000281  0.0000293 0.0000
 50  -1119.7267734174  -0.000000059185 0.00012952  0.00000225  0.0000210 0.0000
 51  -1119.7267734439  -0.000000026565 0.00012077  0.00000210  0.0000209 0.0000
 52  -1119.7267734679  -0.000000023968 0.00006640  0.00000112  0.0000210 0.0000
 53  -1119.7267734735  -0.000000005610 0.00001515  0.00000024  0.0000210 0.0000
 54  -1119.7267734730   0.000000000519 0.00003009  0.00000047  0.0000210 0.0000
 55  -1119.7267734889  -0.000000015850 0.00004701  0.00000079  0.0000211 0.0000
 56  -1119.7267734995  -0.000000010608 0.00008236  0.00000143  0.0000211 0.0000
 57  -1119.7267735167  -0.000000017217 0.00005947  0.00000103  0.0000211 0.0000
 58  -1119.7267735473  -0.000000030568 0.00002548  0.00000041  0.0000212 0.0000
 59  -1119.7267735308   0.000000016436 0.00005226  0.00000087  0.0000211 0.0000
               *** Restarting incremental Fock matrix formation ***
                                   *** Resetting DIIS ***
 60  -1119.7267737558  -0.000000224978 0.00015935  0.00000232  0.0000211 0.0000
 61  -1119.7267738187  -0.000000062938 0.00004600  0.00000062  0.0000577 0.0000
 62  -1119.7267737715   0.000000047245 0.00011920  0.00000209  0.0000199 0.0000
 63  -1119.7267737957  -0.000000024248 0.00006571  0.00000117  0.0000201 0.0000
 64  -1119.7267738372  -0.000000041514 0.00013463  0.00000234  0.0000203 0.0000
 65  -1119.7267738736  -0.000000036368 0.00005793  0.00000100  0.0000204 0.0000
 66  -1119.7267738763  -0.000000002690 0.00011296  0.00000198  0.0000204 0.0000
 67  -1119.7267738989  -0.000000022614 0.00003255  0.00000053  0.0000205 0.0000
 68  -1119.7267739144  -0.000000015482 0.00004546  0.00000079  0.0000205 0.0000
 69  -1119.7267739243  -0.000000009882 0.00007679  0.00000132  0.0000205 0.0000
 70  -1119.7267739491  -0.000000024803 0.00002388  0.00000041  0.0000206 0.0000
 71  -1119.7267739424   0.000000006678 0.00006056  0.00000106  0.0000206 0.0000
 72  -1119.7267739829  -0.000000040531 0.00005452  0.00000096  0.0000206 0.0000
 73  -1119.7267740154  -0.000000032413 0.00003003  0.00000048  0.0000208 0.0000
 74  -1119.7267739840   0.000000031372 0.00005124  0.00000088  0.0000207 0.0000
 75  -1119.7267739808   0.000000003159 0.00003859  0.00000066  0.0000207 0.0000
 76  -1119.7267739852  -0.000000004368 0.00003969  0.00000068  0.0000207 0.0000
 77  -1119.7267739765   0.000000008683 0.00002294  0.00000040  0.0000207 0.0000
 78  -1119.7267739699   0.000000006593 0.00006036  0.00000061  0.0000207 0.0000
 79  -1119.7267740189  -0.000000048984 0.00007855  0.00000120  0.0000315 0.0000
               *** Restarting incremental Fock matrix formation ***
                                   *** Resetting DIIS ***
 80  -1119.7267740347  -0.000000015802 0.00012213  0.00000224  0.0000209 0.0000
 81  -1119.7267740548  -0.000000020056 0.00013555  0.00000201  0.0000198 0.0000
 82  -1119.7267741128  -0.000000058033 0.00003781  0.00000054  0.0000329 0.0000
 83  -1119.7267740741   0.000000038685 0.00007825  0.00000140  0.0000200 0.0000
 84  -1119.7267740802  -0.000000006073 0.00003076  0.00000054  0.0000201 0.0000
 85  -1119.7267740975  -0.000000017292 0.00003492  0.00000061  0.0000201 0.0000
 86  -1119.7267741087  -0.000000011278 0.00012969  0.00000227  0.0000201 0.0000
 87  -1119.7267741327  -0.000000023916 0.00008291  0.00000122  0.0000201 0.0000
 88  -1119.7267741867  -0.000000054079 0.00003012  0.00000029  0.0000206 0.0000
 89  -1119.7267741471   0.000000039634 0.00003322  0.00000058  0.0000202 0.0000
                 **** Energy Check signals convergence ****

               *****************************************************
               *                     SUCCESS                       *
               *           SCF CONVERGED AFTER  90 CYCLES          *
               *****************************************************

Setting up the final grid:

General Integration Accuracy     IntAcc      ...  4.670
Radial Grid Type                 RadialGrid  ... Gauss-Chebyshev
Angular Grid (max. acc.)         AngularGrid ... Lebedev-302
Angular grid pruning method      GridPruning ... 3 (G Style)
Weight generation scheme         WeightScheme... Becke
Basis function cutoff            BFCut       ...    1.0000e-11
Integration weight cutoff        WCut        ...    1.0000e-14
Grids for H and He will be reduced by one unit

# of grid points (after initial pruning)     ...  15876 (   0.0 sec)
# of grid points (after weights+screening)   ...  15841 (   0.0 sec)
nearest neighbour list constructed           ...    0.0 sec
Grid point re-assignment to atoms done       ...    0.0 sec
Grid point division into batches done        ...    0.1 sec
Reduced shell lists constructed in    0.1 sec

Total number of grid points                  ...    15841
Total number of batches                      ...      249
Average number of points per batch           ...       63
Average number of grid points per atom       ...     7920
Average number of shells per batch           ...    16.83 (43.16%)
Average number of basis functions per batch  ...    45.67 (32.85%)
Average number of large shells per batch     ...    10.08 (59.90%)
Average number of large basis fcns per batch ...    28.58 (62.59%)
Maximum spatial batch extension              ...  28.57, 31.41, 16.79 au
Average spatial batch extension              ...   0.89,  0.95,  0.67 au

Final grid set up in    0.1 sec
Final integration                            ... done (   0.1 sec)
Change in XC energy                          ...     0.001995129
Integrated number of electrons               ...    32.000006905
Previous integrated no of electrons          ...    32.000307027

----------------
TOTAL SCF ENERGY
----------------

Total Energy       :        -1119.72477901 Eh          -30469.26026 eV

Components:
Nuclear Repulsion  :           50.80101200 Eh            1382.36581 eV
Electronic Energy  :        -1170.52579101 Eh          -31851.62608 eV
One Electron Energy:        -1642.49309543 Eh          -44694.50935 eV
Two Electron Energy:          471.96730443 Eh           12842.88327 eV

Virial components:
Potential Energy   :        -2237.02753757 Eh          -60872.61400 eV
Kinetic Energy     :         1117.30275856 Eh           30403.35374 eV
Virial Ratio       :            2.00216774


DFT components:
N(Alpha)           :       18.000001652580 electrons
N(Beta)            :       14.000005252577 electrons
N(Total)           :       32.000006905157 electrons
E(X)               :      -55.966256102478 Eh       
E(C)               :       -1.260566797007 Eh       
E(XC)              :      -57.226822899485 Eh       
DFET-embed. en.    :        0.000000000000 Eh       

---------------
SCF CONVERGENCE
---------------

  Last Energy change         ...    8.0859e-09  Tolerance :   1.0000e-08
  Last MAX-Density change    ...    3.4900e-05  Tolerance :   1.0000e-07
  Last RMS-Density change    ...    6.0750e-07  Tolerance :   5.0000e-09
  Last DIIS Error            ...    2.0259e-05  Tolerance :   5.0000e-07

             **** THE GBW FILE WAS UPDATED (23_CrO.gbw) ****
             **** DENSITY FILE WAS UPDATED (23_CrO.scfp) ****
             **** ENERGY FILE WAS UPDATED (23_CrO.en.tmp) ****
----------------------
UHF SPIN CONTAMINATION
----------------------

Warning: in a DFT calculation there is little theoretical justification to 
         calculate <S**2> as in Hartree-Fock theory. We will do it anyways
         but you should keep in mind that the values have only limited relevance

Expectation value of <S**2>     :     6.672417
Ideal value S*(S+1) for S=2.0   :     6.000000
Deviation                       :     0.672417

             **** THE GBW FILE WAS UPDATED (23_CrO.gbw) ****
             **** DENSITY FILE WAS UPDATED (23_CrO.scfp) ****
----------------
ORBITAL ENERGIES
----------------
                 SPIN UP ORBITALS
  NO   OCC          E(Eh)            E(eV) 
   0   1.0000    -214.953642     -5849.1860 
   1   1.0000     -24.356332      -662.7695 
   2   1.0000     -20.659251      -562.1668 
   3   1.0000     -20.659015      -562.1604 
   4   1.0000     -20.655006      -562.0513 
   5   1.0000     -18.855755      -513.0912 
   6   1.0000      -2.814612       -76.5895 
   7   1.0000      -1.789512       -48.6951 
   8   1.0000      -1.789434       -48.6930 
   9   1.0000      -1.783220       -48.5239 
  10   1.0000      -0.750544       -20.4233 
  11   1.0000      -0.254137        -6.9154 
  12   1.0000      -0.237632        -6.4663 
  13   1.0000      -0.223871        -6.0918 
  14   1.0000      -0.206959        -5.6317 
  15   1.0000      -0.206247        -5.6123 
  16   1.0000      -0.191470        -5.2102 
  17   1.0000      -0.174444        -4.7469 
  18   0.0000      -0.149016        -4.0549 
  19   0.0000      -0.127525        -3.4701 
  20   0.0000      -0.041197        -1.1210 
  21   0.0000      -0.038472        -1.0469 
  22   0.0000      -0.003674        -0.1000 
  23   0.0000       0.004360         0.1186 
  24   0.0000       0.023712         0.6452 
  25   0.0000       0.023989         0.6528 
  26   0.0000       0.040241         1.0950 
  27   0.0000       0.040283         1.0962 
  28   0.0000       0.045449         1.2367 
  29   0.0000       0.045884         1.2486 
  30   0.0000       0.047177         1.2837 
  31   0.0000       0.061032         1.6608 
  32   0.0000       0.098845         2.6897 
  33   0.0000       0.131685         3.5833 
  34   0.0000       0.131947         3.5905 
  35   0.0000       0.166043         4.5183 
  36   0.0000       0.185112         5.0371 
  37   0.0000       0.185348         5.0436 
  38   0.0000       0.192307         5.2329 
  39   0.0000       0.193815         5.2740 
  40   0.0000       0.197635         5.3779 
  41   0.0000       0.205224         5.5844 
  42   0.0000       0.207546         5.6476 
  43   0.0000       0.254098         6.9144 
  44   0.0000       0.363351         9.8873 
  45   0.0000       0.466147        12.6845 
  46   0.0000       0.466959        12.7066 
  47   0.0000       0.493702        13.4343 
  48   0.0000       0.493722        13.4349 
  49   0.0000       0.555869        15.1260 
  50   0.0000       0.557757        15.1773 
  51   0.0000       0.588250        16.0071 
  52   0.0000       0.592945        16.1348 
  53   0.0000       0.593912        16.1612 
  54   0.0000       0.625065        17.0089 
  55   0.0000       0.668480        18.1903 
  56   0.0000       0.671597        18.2751 
  57   0.0000       0.682454        18.5705 
  58   0.0000       0.683726        18.6051 
  59   0.0000       0.699342        19.0301 
  60   0.0000       0.761464        20.7205 
  61   0.0000       0.761917        20.7328 
  62   0.0000       0.810548        22.0561 
  63   0.0000       0.822561        22.3830 
  64   0.0000       0.960803        26.1448 
  65   0.0000       1.099465        29.9180 
  66   0.0000       1.118774        30.4434 
  67   0.0000       1.127008        30.6674 
  68   0.0000       1.402907        38.1750 
  69   0.0000       1.607518        43.7428 
  70   0.0000       1.609571        43.7987 
  71   0.0000       1.669335        45.4249 
  72   0.0000       1.670717        45.4625 
  73   0.0000       1.699035        46.2331 
  74   0.0000       1.699180        46.2370 
  75   0.0000       1.699201        46.2376 
  76   0.0000       1.814380        49.3718 
  77   0.0000       1.838590        50.0306 
  78   0.0000       1.839748        50.0621 
  79   0.0000       1.842314        50.1319 
  80   0.0000       1.845028        50.2058 
  81   0.0000       1.984261        53.9945 
  82   0.0000       1.987486        54.0823 
  83   0.0000       1.999076        54.3976 
  84   0.0000       2.003720        54.5240 
  85   0.0000       2.100660        57.1619 
  86   0.0000       2.102029        57.1991 
  87   0.0000       2.122003        57.7426 
  88   0.0000       2.158411        58.7334 
  89   0.0000       2.158530        58.7366 
  90   0.0000       2.209321        60.1187 
  91   0.0000       2.214226        60.2521 
  92   0.0000       2.294651        62.4406 
  93   0.0000       2.308741        62.8240 
  94   0.0000       2.310505        62.8720 
  95   0.0000       2.469749        67.2053 
  96   0.0000       2.471301        67.2475 
  97   0.0000       2.541930        69.1694 
  98   0.0000       2.879547        78.3565 
  99   0.0000       2.880300        78.3769 
 100   0.0000       3.056046        83.1592 
 101   0.0000       3.187136        86.7264 
 102   0.0000       3.187335        86.7318 
 103   0.0000       3.396625        92.4269 
 104   0.0000       3.397189        92.4422 
 105   0.0000       3.788772       103.0977 
 106   0.0000       3.907037       106.3159 
 107   0.0000       3.916462       106.5723 
 108   0.0000       4.381728       119.2329 
 109   0.0000       6.008891       163.5102 
 110   0.0000       6.010283       163.5481 
 111   0.0000       6.010315       163.5490 
 112   0.0000       6.010435       163.5523 
 113   0.0000       6.055343       164.7743 
 114   0.0000       6.058261       164.8537 
 115   0.0000       6.060314       164.9095 
 116   0.0000       6.145053       167.2154 
 117   0.0000       6.146166       167.2457 
 118   0.0000       6.206164       168.8783 
 119   0.0000       6.246463       169.9749 
 120   0.0000       6.411626       174.4692 
 121   0.0000       6.454828       175.6448 
 122   0.0000       6.470084       176.0599 
 123   0.0000       6.537959       177.9069 
 124   0.0000       6.538304       177.9163 
 125   0.0000       6.548452       178.1924 
 126   0.0000       6.548488       178.1934 
 127   0.0000       6.587480       179.2544 
 128   0.0000       6.590902       179.3476 
 129   0.0000       6.622346       180.2032 
 130   0.0000       6.622849       180.2169 
 131   0.0000       6.642781       180.7593 
 132   0.0000       6.646861       180.8703 
 133   0.0000       6.814258       185.4254 
 134   0.0000       6.917847       188.2442 
 135   0.0000       6.918202       188.2538 
 136   0.0000       7.130241       194.0237 
 137   0.0000       7.643270       207.9840 
 138   0.0000      10.581818       287.9459 

                 SPIN DOWN ORBITALS
  NO   OCC          E(Eh)            E(eV) 
   0   1.0000    -214.952658     -5849.1592 
   1   1.0000     -24.305161      -661.3770 
   2   1.0000     -20.622151      -561.1573 
   3   1.0000     -20.616515      -561.0039 
   4   1.0000     -20.610285      -560.8344 
   5   1.0000     -18.878930      -513.7218 
   6   1.0000      -2.661554       -72.4246 
   7   1.0000      -1.645293       -44.7707 
   8   1.0000      -1.633336       -44.4453 
   9   1.0000      -1.619762       -44.0760 
  10   1.0000      -0.807763       -21.9804 
  11   1.0000      -0.273638        -7.4461 
  12   1.0000      -0.266563        -7.2535 
  13   1.0000      -0.222696        -6.0599 
  14   0.0000      -0.107685        -2.9303 
  15   0.0000      -0.069017        -1.8781 
  16   0.0000      -0.062248        -1.6939 
  17   0.0000      -0.060242        -1.6393 
  18   0.0000      -0.057715        -1.5705 
  19   0.0000      -0.056454        -1.5362 
  20   0.0000      -0.002631        -0.0716 
  21   0.0000       0.000903         0.0246 
  22   0.0000       0.015022         0.4088 
  23   0.0000       0.016396         0.4462 
  24   0.0000       0.039653         1.0790 
  25   0.0000       0.040951         1.1143 
  26   0.0000       0.060088         1.6351 
  27   0.0000       0.060968         1.6590 
  28   0.0000       0.061114         1.6630 
  29   0.0000       0.062781         1.7083 
  30   0.0000       0.062894         1.7114 
  31   0.0000       0.072380         1.9695 
  32   0.0000       0.129876         3.5341 
  33   0.0000       0.167795         4.5659 
  34   0.0000       0.168947         4.5973 
  35   0.0000       0.184192         5.0121 
  36   0.0000       0.193016         5.2522 
  37   0.0000       0.198178         5.3927 
  38   0.0000       0.208007         5.6602 
  39   0.0000       0.224014         6.0957 
  40   0.0000       0.224145         6.0993 
  41   0.0000       0.234282         6.3751 
  42   0.0000       0.236489         6.4352 
  43   0.0000       0.269158         7.3242 
  44   0.0000       0.385514        10.4904 
  45   0.0000       0.484550        13.1853 
  46   0.0000       0.484692        13.1891 
  47   0.0000       0.538248        14.6465 
  48   0.0000       0.538281        14.6474 
  49   0.0000       0.601220        16.3600 
  50   0.0000       0.606328        16.4990 
  51   0.0000       0.621133        16.9019 
  52   0.0000       0.625190        17.0123 
  53   0.0000       0.641785        17.4639 
  54   0.0000       0.658824        17.9275 
  55   0.0000       0.691329        18.8120 
  56   0.0000       0.694824        18.9071 
  57   0.0000       0.696265        18.9463 
  58   0.0000       0.697124        18.9697 
  59   0.0000       0.703937        19.1551 
  60   0.0000       0.810669        22.0594 
  61   0.0000       0.828624        22.5480 
  62   0.0000       0.842017        22.9124 
  63   0.0000       0.842404        22.9230 
  64   0.0000       1.003363        27.3029 
  65   0.0000       1.081958        29.4416 
  66   0.0000       1.140432        31.0327 
  67   0.0000       1.153584        31.3906 
  68   0.0000       1.467717        39.9386 
  69   0.0000       1.647812        44.8392 
  70   0.0000       1.660159        45.1752 
  71   0.0000       1.720046        46.8048 
  72   0.0000       1.724694        46.9313 
  73   0.0000       1.741526        47.3893 
  74   0.0000       1.795373        48.8546 
  75   0.0000       1.795457        48.8569 
  76   0.0000       1.834913        49.9305 
  77   0.0000       1.835164        49.9373 
  78   0.0000       1.837923        50.0124 
  79   0.0000       1.887702        51.3670 
  80   0.0000       1.889774        51.4234 
  81   0.0000       1.970652        53.6242 
  82   0.0000       1.971104        53.6365 
  83   0.0000       1.993256        54.2393 
  84   0.0000       2.012243        54.7559 
  85   0.0000       2.140520        58.2465 
  86   0.0000       2.176665        59.2301 
  87   0.0000       2.177255        59.2461 
  88   0.0000       2.226514        60.5865 
  89   0.0000       2.226692        60.5914 
  90   0.0000       2.306826        62.7719 
  91   0.0000       2.320566        63.1458 
  92   0.0000       2.324816        63.2615 
  93   0.0000       2.335041        63.5397 
  94   0.0000       2.343998        63.7834 
  95   0.0000       2.511934        68.3532 
  96   0.0000       2.512408        68.3661 
  97   0.0000       2.609342        71.0038 
  98   0.0000       2.918350        79.4123 
  99   0.0000       2.932355        79.7934 
 100   0.0000       3.064483        83.3888 
 101   0.0000       3.318127        90.2908 
 102   0.0000       3.318181        90.2923 
 103   0.0000       3.498456        95.1978 
 104   0.0000       3.510770        95.5329 
 105   0.0000       3.834359       104.3382 
 106   0.0000       3.855745       104.9202 
 107   0.0000       3.879679       105.5714 
 108   0.0000       4.377698       119.1232 
 109   0.0000       6.090566       165.7327 
 110   0.0000       6.092292       165.7797 
 111   0.0000       6.128518       166.7655 
 112   0.0000       6.144383       167.1972 
 113   0.0000       6.160599       167.6384 
 114   0.0000       6.170726       167.9140 
 115   0.0000       6.190252       168.4453 
 116   0.0000       6.190504       168.4522 
 117   0.0000       6.191559       168.4809 
 118   0.0000       6.215065       169.1205 
 119   0.0000       6.232255       169.5883 
 120   0.0000       6.419494       174.6833 
 121   0.0000       6.425274       174.8406 
 122   0.0000       6.451355       175.5503 
 123   0.0000       6.506074       177.0393 
 124   0.0000       6.510186       177.1512 
 125   0.0000       6.611025       179.8951 
 126   0.0000       6.642642       180.7555 
 127   0.0000       6.661163       181.2595 
 128   0.0000       6.661407       181.2661 
 129   0.0000       6.668239       181.4520 
 130   0.0000       6.668298       181.4536 
 131   0.0000       6.746843       183.5909 
 132   0.0000       6.749773       183.6706 
 133   0.0000       6.830608       185.8703 
 134   0.0000       6.963188       189.4780 
 135   0.0000       6.981803       189.9845 
 136   0.0000       7.183077       195.4615 
 137   0.0000       7.774672       211.5596 
 138   0.0000      10.544209       286.9225 

                    ********************************
                    * MULLIKEN POPULATION ANALYSIS *
                    ********************************

--------------------------------------------
MULLIKEN ATOMIC CHARGES AND SPIN POPULATIONS
--------------------------------------------
   0 Cr:    0.531005    4.954080
   1 O :   -0.531005   -0.954080
Sum of atomic charges         :   -0.0000000
Sum of atomic spin populations:    4.0000000

-----------------------------------------------------
MULLIKEN REDUCED ORBITAL CHARGES AND SPIN POPULATIONS
-----------------------------------------------------
CHARGE
  0 Crs       :     6.713290  s :     6.713290
      pz      :     4.031192  p :    12.111745
      px      :     4.064440
      py      :     4.016113
      dz2     :     0.805621  d :     4.631878
      dxz     :     1.004483
      dyz     :     0.824981
      dx2y2   :     0.998288
      dxy     :     0.998505
      f0      :     0.004997  f :     0.009622
      f+1     :     0.003399
      f-1     :     0.000665
      f+2     :     0.000280
      f-2     :     0.000273
      f+3     :     0.000005
      f-3     :     0.000004
      g0      :     0.001134  g :     0.002461
      g+1     :     0.000819
      g-1     :     0.000504
      g+2     :     0.000001
      g-2     :     0.000001
      g+3     :     0.000000
      g-3     :     0.000000
      g+4     :     0.000001
      g-4     :     0.000001
  1 O s       :     3.954651  s :     3.954651
      pz      :     1.487319  p :     4.562355
      px      :     1.791163
      py      :     1.283873
      dz2     :     0.003306  d :     0.012315
      dxz     :     0.004098
      dyz     :     0.004290
      dx2y2   :     0.000327
      dxy     :     0.000295
      f0      :     0.000363  f :     0.001683
      f+1     :     0.000471
      f-1     :     0.000611
      f+2     :     0.000081
      f-2     :     0.000077
      f+3     :     0.000040
      f-3     :     0.000041

SPIN
  0 Crs       :     0.612586  s :     0.612586
      pz      :     0.002622  p :     0.049566
      px      :     0.044787
      py      :     0.002157
      dz2     :     0.639963  d :     4.292000
      dxz     :     0.901908
      dyz     :     0.753371
      dx2y2   :     0.998269
      dxy     :     0.998489
      f0      :    -0.000977  f :     0.000920
      f+1     :     0.001805
      f-1     :    -0.000454
      f+2     :     0.000275
      f-2     :     0.000269
      f+3     :     0.000001
      f-3     :     0.000001
      g0      :    -0.000539  g :    -0.000992
      g+1     :    -0.000096
      g-1     :    -0.000360
      g+2     :     0.000000
      g-2     :     0.000000
      g+3     :    -0.000000
      g-3     :     0.000000
      g+4     :     0.000001
      g-4     :     0.000001
  1 O s       :    -0.015790  s :    -0.015790
      pz      :    -0.236914  p :    -0.940838
      px      :    -0.079317
      py      :    -0.624607
      dz2     :     0.001406  d :     0.002139
      dxz     :    -0.000187
      dyz     :     0.000649
      dx2y2   :     0.000136
      dxy     :     0.000136
      f0      :    -0.000044  f :     0.000409
      f+1     :     0.000052
      f-1     :     0.000360
      f+2     :     0.000055
      f-2     :     0.000056
      f+3     :    -0.000034
      f-3     :    -0.000036


                     *******************************
                     * LOEWDIN POPULATION ANALYSIS *
                     *******************************

-------------------------------------------
LOEWDIN ATOMIC CHARGES AND SPIN POPULATIONS
-------------------------------------------
   0 Cr:    0.414324    4.721143
   1 O :   -0.414324   -0.721143

----------------------------------------------------
LOEWDIN REDUCED ORBITAL CHARGES AND SPIN POPULATIONS
----------------------------------------------------
CHARGE
  0 Crs       :     6.512877  s :     6.512877
      pz      :     4.082567  p :    12.170787
      px      :     4.079867
      py      :     4.008353
      dz2     :     0.891194  d :     4.710134
      dxz     :     1.009784
      dyz     :     0.819799
      dx2y2   :     0.994573
      dxy     :     0.994784
      f0      :     0.084301  f :     0.170505
      f+1     :     0.053478
      f-1     :     0.031642
      f+2     :     0.000542
      f-2     :     0.000534
      f+3     :     0.000005
      f-3     :     0.000004
      g0      :     0.011196  g :     0.021373
      g+1     :     0.006314
      g-1     :     0.003811
      g+2     :     0.000025
      g-2     :     0.000025
      g+3     :     0.000000
      g-3     :     0.000000
      g+4     :     0.000001
      g-4     :     0.000001
  1 O s       :     3.673521  s :     3.673521
      pz      :     1.630934  p :     4.533858
      px      :     1.675323
      py      :     1.227601
      dz2     :     0.091484  d :     0.159841
      dxz     :     0.032997
      dyz     :     0.030276
      dx2y2   :     0.002554
      dxy     :     0.002530
      f0      :     0.023797  f :     0.047104
      f+1     :     0.011112
      f-1     :     0.009555
      f+2     :     0.001281
      f-2     :     0.001278
      f+3     :     0.000040
      f-3     :     0.000041

SPIN
  0 Crs       :     0.521373  s :     0.521373
      pz      :     0.007344  p :     0.057572
      px      :     0.056609
      py      :    -0.006382
      dz2     :     0.616696  d :     4.162484
      dxz     :     0.856758
      dyz     :     0.699706
      dx2y2   :     0.994555
      dxy     :     0.994768
      f0      :    -0.001273  f :    -0.016437
      f+1     :     0.002976
      f-1     :    -0.019208
      f+2     :     0.000537
      f-2     :     0.000529
      f+3     :     0.000001
      f-3     :     0.000001
      g0      :    -0.001482  g :    -0.003849
      g+1     :     0.000160
      g-1     :    -0.002578
      g+2     :     0.000024
      g-2     :     0.000024
      g+3     :    -0.000000
      g-3     :    -0.000000
      g+4     :     0.000001
      g-4     :     0.000001
  1 O s       :     0.005922  s :     0.005922
      pz      :    -0.151142  p :    -0.787169
      px      :    -0.073390
      py      :    -0.562636
      dz2     :     0.002711  d :     0.041690
      dxz     :     0.018236
      dyz     :     0.016007
      dx2y2   :     0.002364
      dxy     :     0.002372
      f0      :     0.002163  f :     0.018414
      f+1     :     0.007602
      f-1     :     0.006205
      f+2     :     0.001256
      f-2     :     0.001257
      f+3     :    -0.000034
      f-3     :    -0.000036


                      *****************************
                      * MAYER POPULATION ANALYSIS *
                      *****************************

  NA   - Mulliken gross atomic population
  ZA   - Total nuclear charge
  QA   - Mulliken gross atomic charge
  VA   - Mayer's total valence
  BVA  - Mayer's bonded valence
  FA   - Mayer's free valence

  ATOM       NA         ZA         QA         VA         BVA        FA
  0 Cr    23.4690    24.0000     0.5310     5.8970     1.3786     4.5184
  1 O      8.5310     8.0000    -0.5310     1.9477     1.3786     0.5691

  Mayer bond orders larger than 0.100000
B(  0-Cr,  1-O ) :   1.3786 

-------
TIMINGS
-------

Total SCF time: 0 days 0 hours 0 min 14 sec 

Total time                  ....      14.663 sec
Sum of individual times     ....      14.328 sec  ( 97.7%)

Fock matrix formation       ....      13.379 sec  ( 91.2%)
  Split-RI-J                ....      11.226 sec  ( 83.9% of F)
  XC integration            ....       1.424 sec  ( 10.6% of F)
    Basis function eval.    ....       0.162 sec  ( 11.4% of XC)
    Density eval.           ....       0.226 sec  ( 15.9% of XC)
    XC-Functional eval.     ....       0.049 sec  (  3.5% of XC)
    XC-Potential eval.      ....       0.569 sec  ( 39.9% of XC)
Diagonalization             ....       0.456 sec  (  3.1%)
Density matrix formation    ....       0.057 sec  (  0.4%)
Population analysis         ....       0.006 sec  (  0.0%)
Initial guess               ....       0.123 sec  (  0.8%)
Orbital Transformation      ....       0.000 sec  (  0.0%)
Orbital Orthonormalization  ....       0.000 sec  (  0.0%)
DIIS solution               ....       0.174 sec  (  1.2%)
Grid generation             ....       0.132 sec  (  0.9%)


-------------------------------------------------------------------------------
                          DFT DISPERSION CORRECTION                            
                                                                               
                              DFTD3 V3.1  Rev 1                                
                          USING Becke-Johnson damping                          
-------------------------------------------------------------------------------
The TPSS functional is recognized
Active option DFTDOPT                   ...         4   

molecular C6(AA) [au] = 586.607105 


            DFT-D V3
 parameters
 s6 scaling factor         :     1.0000 
 a1 scaling factor         :     0.4535 
 s8 scaling factor         :     1.9435 
 a2 scaling factor         :     4.4752 
 ad hoc parameters k1-k3   :    16.0000     1.3333    -4.0000 

 Edisp/kcal,au: -0.569629275567  -0.000907761936 
 E6   /kcal   :  -0.225296353 
 E8   /kcal   :  -0.344332922 
 % E8         :  60.448600037 

-------------------------   ----------------
Dispersion correction           -0.000907762
-------------------------   ----------------


-------------------------   --------------------
FINAL SINGLE POINT ENERGY     -1119.725686772321
-------------------------   --------------------



           ************************************************************
           *        Program running with 24 parallel MPI-processes    *
           *              working on a common directory               *
           ************************************************************
------------------------------------------------------------------------------
                         ORCA SCF GRADIENT CALCULATION
------------------------------------------------------------------------------

Gradient of the Kohn-Sham DFT energy:
Kohn-Sham wavefunction type      ... UKS
Hartree-Fock exchange scaling    ...    0.000
Number of operators              ...    2
Number of atoms                  ...    2
Basis set dimensions             ...  139
Integral neglect threshold       ... 2.5e-11
Integral primitive cutoff        ... 2.5e-12

Nuclear repulsion gradient       ... done
One Electron Gradient            ... done
Pre-screening matrix             ... done
RI-J gradient                    ... done
Exchange-correlation gradient    ... done
Dispersion correction            ... done

------------------
CARTESIAN GRADIENT
------------------

   1   Cr  :   -0.000000009    0.000000004   -0.077112011
   2   O   :    0.000000003    0.000000004    0.076912376

Difference to translation invariance:
           :   -0.0000000059    0.0000000075   -0.0001996345

Norm of the cartesian gradient     ...    0.1089117797
RMS gradient                       ...    0.0444630479
MAX gradient                       ...    0.0771120105

-------
TIMINGS
-------

Total SCF gradient time            ...        4.298 sec

One electron gradient       ....       0.050 sec  (  1.2%)
Prescreening matrices       ....       3.400 sec  ( 79.1%)
RI-J Coulomb gradient       ....       0.234 sec  (  5.5%)
XC gradient                 ....       0.089 sec  (  2.1%)
------------------------------------------------------------------------------
                         ORCA GEOMETRY RELAXATION STEP
------------------------------------------------------------------------------

Reading the OPT-File                    .... done
Getting information on internals        .... done
Copying old internal coords+grads       .... done
Making the new internal coordinates     .... (new redundants).... done
Validating the new internal coordinates .... (new redundants).... done
Calculating the B-matrix                .... done
Calculating the G,G- and P matrices     .... done
Transforming gradient to internals      .... done
Projecting the internal gradient        .... done
Number of atoms                         ....   2
Number of internal coordinates          ....   1
Current Energy                          .... -1119.725686772 Eh
Current gradient norm                   ....     0.108911780 Eh/bohr
Maximum allowed component of the step   ....  0.300
Current trust radius                    ....  0.300
Evaluating the initial hessian          ....  (Almloef) done
Projecting the Hessian                  .... done
Forming the augmented Hessian           .... done
Diagonalizing the augmented Hessian     .... done
Last element of RFO vector              ....  0.992174127
Lowest eigenvalues of augmented Hessian:
 -0.009691738
Length of the computed step             ....  0.125846793
The final length of the internal step   ....  0.125846793
Converting the step to cartesian space:
 Initial RMS(Int)=    0.1258467932
Transforming coordinates:
 Iter   0:  RMS(Cart)=    0.0363288400 RMS(Int)=    0.1258467932
 Iter   1:  RMS(Cart)=    0.0000000000 RMS(Int)=    0.0000000000
done
Storing new coordinates                 .... done

                                .--------------------.
          ----------------------|Geometry convergence|-------------------------
          Item                value                   Tolerance       Converged
          ---------------------------------------------------------------------
          RMS gradient        0.0770121933            0.0001000000      NO
          MAX gradient        0.0770121933            0.0003000000      NO
          RMS step            0.1258467932            0.0020000000      NO
          MAX step            0.1258467932            0.0040000000      NO
          ........................................................
          Max(Bonds)      0.0666      Max(Angles)    0.00
          Max(Dihed)        0.00      Max(Improp)    0.00
          ---------------------------------------------------------------------

The optimization has not yet converged - more geometry cycles are needed


    ---------------------------------------------------------------------------
                         Redundant Internal Coordinates
                            (Angstroem and degrees)

        Definition                    Value    dE/dq     Step     New-Value
    ----------------------------------------------------------------------------
     1. B(O   1,Cr  0)                2.0000  0.077012 -0.0666    1.9334   
    ----------------------------------------------------------------------------

         *************************************************************
         *                GEOMETRY OPTIMIZATION CYCLE   2            *
         *************************************************************
---------------------------------
CARTESIAN COORDINATES (ANGSTROEM)
---------------------------------
  Cr     0.000000    0.000000    0.033298
  O      0.000000    0.000000    1.966702

----------------------------
CARTESIAN COORDINATES (A.U.)
----------------------------
  NO LB      ZA    FRAG     MASS         X           Y           Z
   0 Cr   24.0000    0    52.000    0.000000    0.000000    0.062923
   1 O     8.0000    0    15.999    0.000000    0.000000    3.716529

--------------------------------
INTERNAL COORDINATES (ANGSTROEM)
--------------------------------
 Cr     0   0   0     0.000000000000     0.00000000     0.00000000
 O      1   0   0     1.933404745312     0.00000000     0.00000000

---------------------------
INTERNAL COORDINATES (A.U.)
---------------------------
 Cr     0   0   0     0.000000000000     0.00000000     0.00000000
 O      1   0   0     3.653605474663     0.00000000     0.00000000



           ************************************************************
           *        Program running with 24 parallel MPI-processes    *
           *              working on a common directory               *
           ************************************************************
 One Electron integrals                  ... done
 Pre-screening matrix                    ... done


           ************************************************************
           *        Program running with 24 parallel MPI-processes    *
           *              working on a common directory               *
           ************************************************************

Diagonalization of the overlap matrix:
Smallest eigenvalue                        ... 8.873e-05
Time for diagonalization                   ...    0.006 sec
Threshold for overlap eigenvalues          ... 1.000e-08
Number of eigenvalues below threshold      ... 0
Time for construction of square roots      ...    0.002 sec
Total time needed                          ...    0.008 sec

-------------------
DFT GRID GENERATION
-------------------

General Integration Accuracy     IntAcc      ...  4.340
Radial Grid Type                 RadialGrid  ... Gauss-Chebyshev
Angular Grid (max. acc.)         AngularGrid ... Lebedev-110
Angular grid pruning method      GridPruning ... 3 (G Style)
Weight generation scheme         WeightScheme... Becke
Basis function cutoff            BFCut       ...    1.0000e-11
Integration weight cutoff        WCut        ...    1.0000e-14
Grids for H and He will be reduced by one unit

# of grid points (after initial pruning)     ...   4688 (   0.0 sec)
# of grid points (after weights+screening)   ...   4663 (   0.0 sec)
nearest neighbour list constructed           ...    0.0 sec
Grid point re-assignment to atoms done       ...    0.0 sec
Grid point division into batches done        ...    0.0 sec
Reduced shell lists constructed in    0.0 sec

Total number of grid points                  ...     4663
Total number of batches                      ...       74
Average number of points per batch           ...       63
Average number of grid points per atom       ...     2332
Average number of shells per batch           ...    22.00 (56.41%)
Average number of basis functions per batch  ...    69.20 (49.78%)
Average number of large shells per batch     ...    17.20 (78.18%)
Average number of large basis fcns per batch ...    52.40 (75.72%)
Maximum spatial batch extension              ...  18.98, 28.73, 16.15 au
Average spatial batch extension              ...   0.94,  1.30,  0.87 au

Time for grid setup =    0.019 sec

--------------
SCF ITERATIONS
--------------
ITER       Energy         Delta-E        Max-DP      RMS-DP      [F,P]     Damp
               ***  Starting incremental Fock matrix formation  ***
  0  -1119.7358349863   0.000000000000 0.01011307  0.00012057  0.0058661 0.7000
  1  -1119.7360091848  -0.000174198537 0.01196812  0.00013932  0.0043346 0.7000
                               ***Turning on DIIS***
  2  -1119.7361509480  -0.000141763201 0.03535860  0.00040762  0.0040714 0.0000
  3  -1119.7365762315  -0.000425283527 0.00552118  0.00007078  0.0021140 0.0000
  4  -1119.7366185245  -0.000042292973 0.00270140  0.00004189  0.0031168 0.0000
  5  -1119.7366546380  -0.000036113508 0.00325765  0.00002836  0.0010521 0.0000
  6  -1119.7366729941  -0.000018356053 0.00263408  0.00002799  0.0010277 0.0000
  7  -1119.7366853566  -0.000012362498 0.00884193  0.00006022  0.0004352 0.0000
  8  -1119.7366873589  -0.000002002371 0.00058682  0.00000761  0.0028054 0.0000
  9  -1119.7366935070  -0.000006148023 0.00050378  0.00000687  0.0021293 0.0000
 10  -1119.7366921798   0.000001327153 0.00036920  0.00000512  0.0022173 0.0000
 11  -1119.7366889056   0.000003274211 0.00013585  0.00000163  0.0025370 0.0000
 12  -1119.7366873267   0.000001578939 0.00271980  0.00003730  0.0026930 0.0000
 13  -1119.7366987177  -0.000011390998 0.00058830  0.00000733  0.0015247 0.0000
 14  -1119.7366997749  -0.000001057261 0.00142803  0.00001967  0.0009292 0.0000
 15  -1119.7367018478  -0.000002072840 0.00022718  0.00000430  0.0003239 0.0000
 16  -1119.7367021552  -0.000000307468 0.00025864  0.00000386  0.0000960 0.0000
 17  -1119.7367021892  -0.000000034019 0.00012893  0.00000180  0.0001822 0.0000
 18  -1119.7367022953  -0.000000106098 0.00020709  0.00000248  0.0000317 0.0000
 19  -1119.7367023356  -0.000000040287 0.00017356  0.00000268  0.0000551 0.0000
               *** Restarting incremental Fock matrix formation ***
                                   *** Resetting DIIS ***
 20  -1119.7367022174   0.000000118198 0.00020114  0.00000327  0.0000422 0.0000
 21  -1119.7367021418   0.000000075601 0.00014509  0.00000117  0.0001509 0.0000
 22  -1119.7367022137  -0.000000071877 0.00012983  0.00000204  0.0000157 0.0000
 23  -1119.7367022372  -0.000000023530 0.00007479  0.00000114  0.0000158 0.0000
 24  -1119.7367022244   0.000000012840 0.00003775  0.00000059  0.0000157 0.0000
 25  -1119.7367022385  -0.000000014143 0.00004842  0.00000076  0.0000157 0.0000
 26  -1119.7367022639  -0.000000025354 0.00004866  0.00000072  0.0000159 0.0000
 27  -1119.7367022319   0.000000032013 0.00004848  0.00000074  0.0000158 0.0000
 28  -1119.7367022591  -0.000000027170 0.00002112  0.00000033  0.0000159 0.0000
 29  -1119.7367022632  -0.000000004110 0.00000262  0.00000005  0.0000159 0.0000
 30  -1119.7367022425   0.000000020639 0.00001444  0.00000022  0.0000159 0.0000
 31  -1119.7367022281   0.000000014453 0.00013763  0.00000210  0.0000159 0.0000
 32  -1119.7367022859  -0.000000057836 0.00003500  0.00000052  0.0000162 0.0000
 33  -1119.7367022931  -0.000000007176 0.00004210  0.00000066  0.0000162 0.0000
 34  -1119.7367022896   0.000000003462 0.00002319  0.00000035  0.0000163 0.0000
 35  -1119.7367022794   0.000000010203 0.00001943  0.00000029  0.0000163 0.0000
 36  -1119.7367022592   0.000000020210 0.00009439  0.00000140  0.0000162 0.0000
 37  -1119.7367022428   0.000000016359 0.00001468  0.00000013  0.0000161 0.0000
 38  -1119.7367022855  -0.000000042666 0.00002870  0.00000044  0.0000163 0.0000
 39  -1119.7367022922  -0.000000006645 0.00006513  0.00000093  0.0000163 0.0000
               *** Restarting incremental Fock matrix formation ***
                                   *** Resetting DIIS ***
 40  -1119.7367023851  -0.000000092904 0.00014717  0.00000215  0.0000165 0.0000
 41  -1119.7367023744   0.000000010665 0.00005447  0.00000044  0.0000398 0.0000
 42  -1119.7367024288  -0.000000054393 0.00022008  0.00000341  0.0000156 0.0000
 43  -1119.7367024646  -0.000000035851 0.00002948  0.00000044  0.0000159 0.0000
 44  -1119.7367024663  -0.000000001622 0.00009882  0.00000158  0.0000158 0.0000
 45  -1119.7367024913  -0.000000025032 0.00003228  0.00000053  0.0000158 0.0000
 46  -1119.7367024673   0.000000023985 0.00011823  0.00000176  0.0000158 0.0000
 47  -1119.7367024442   0.000000023084 0.00009925  0.00000137  0.0000228 0.0000
 48  -1119.7367025038  -0.000000059544 0.00005043  0.00000076  0.0000158 0.0000
 49  -1119.7367025418  -0.000000038048 0.00006436  0.00000100  0.0000159 0.0000
                 **** Energy Check signals convergence ****

               *****************************************************
               *                     SUCCESS                       *
               *           SCF CONVERGED AFTER  50 CYCLES          *
               *****************************************************

Setting up the final grid:

General Integration Accuracy     IntAcc      ...  4.670
Radial Grid Type                 RadialGrid  ... Gauss-Chebyshev
Angular Grid (max. acc.)         AngularGrid ... Lebedev-302
Angular grid pruning method      GridPruning ... 3 (G Style)
Weight generation scheme         WeightScheme... Becke
Basis function cutoff            BFCut       ...    1.0000e-11
Integration weight cutoff        WCut        ...    1.0000e-14
Grids for H and He will be reduced by one unit

# of grid points (after initial pruning)     ...  15876 (   0.0 sec)
# of grid points (after weights+screening)   ...  15841 (   0.0 sec)
nearest neighbour list constructed           ...    0.0 sec
Grid point re-assignment to atoms done       ...    0.0 sec
Grid point division into batches done        ...    0.1 sec
Reduced shell lists constructed in    0.1 sec

Total number of grid points                  ...    15841
Total number of batches                      ...      248
Average number of points per batch           ...       63
Average number of grid points per atom       ...     7920
Average number of shells per batch           ...    16.83 (43.16%)
Average number of basis functions per batch  ...    45.67 (32.85%)
Average number of large shells per batch     ...    10.00 (59.41%)
Average number of large basis fcns per batch ...    28.33 (62.04%)
Maximum spatial batch extension              ...  28.57, 31.41, 16.66 au
Average spatial batch extension              ...   0.89,  0.95,  0.67 au

Final grid set up in    0.1 sec
Final integration                            ... done (   0.1 sec)
Change in XC energy                          ...     0.002062124
Integrated number of electrons               ...    32.000008383
Previous integrated no of electrons          ...    32.000431939
Total Energy       :        -1119.73464041 Eh          -30469.52861 eV
  Last Energy change         ...    9.8526e-09  Tolerance :   1.0000e-08
  Last MAX-Density change    ...    2.8571e-05  Tolerance :   1.0000e-07
             **** THE GBW FILE WAS UPDATED (23_CrO.gbw) ****
             **** DENSITY FILE WAS UPDATED (23_CrO.scfp) ****
             **** ENERGY FILE WAS UPDATED (23_CrO.en.tmp) ****
----------------------
UHF SPIN CONTAMINATION
----------------------

Warning: in a DFT calculation there is little theoretical justification to 
         calculate <S**2> as in Hartree-Fock theory. We will do it anyways
         but you should keep in mind that the values have only limited relevance

Expectation value of <S**2>     :     6.565345
Ideal value S*(S+1) for S=2.0   :     6.000000
Deviation                       :     0.565345

             **** THE GBW FILE WAS UPDATED (23_CrO.gbw) ****
             **** DENSITY FILE WAS UPDATED (23_CrO.scfp) ****
Total SCF time: 0 days 0 hours 0 min 9 sec 


-------------------------------------------------------------------------------
                          DFT DISPERSION CORRECTION                            
                                                                               
                              DFTD3 V3.1  Rev 1                                
                          USING Becke-Johnson damping                          
-------------------------------------------------------------------------------
-------------------------   ----------------
Dispersion correction           -0.000874287
-------------------------   ----------------


-------------------------   --------------------
FINAL SINGLE POINT ENERGY     -1119.735514694822
-------------------------   --------------------



           ************************************************************
           *        Program running with 24 parallel MPI-processes    *
           *              working on a common directory               *
           ************************************************************
------------------------------------------------------------------------------
                         ORCA SCF GRADIENT CALCULATION
------------------------------------------------------------------------------

Gradient of the Kohn-Sham DFT energy:
Kohn-Sham wavefunction type      ... UKS
Hartree-Fock exchange scaling    ...    0.000
Number of operators              ...    2
Number of atoms                  ...    2
Basis set dimensions             ...  139
Integral neglect threshold       ... 2.5e-11
Integral primitive cutoff        ... 2.5e-12

Nuclear repulsion gradient       ... done
One Electron Gradient            ... done
Pre-screening matrix             ... done
RI-J gradient                    ... done
Exchange-correlation gradient    ... done
Dispersion correction            ... done

------------------
CARTESIAN GRADIENT
------------------

   1   Cr  :    0.000000005    0.000000014   -0.078853717
   2   O   :   -0.000000000   -0.000000007    0.078609416

Difference to translation invariance:
           :    0.0000000049    0.0000000076   -0.0002443007

Norm of the cartesian gradient     ...    0.1113433830
RMS gradient                       ...    0.0454557458
MAX gradient                       ...    0.0788537167

-------
TIMINGS
-------

Total SCF gradient time            ...        4.302 sec

One electron gradient       ....       0.061 sec  (  1.4%)
Prescreening matrices       ....       3.397 sec  ( 78.9%)
RI-J Coulomb gradient       ....       0.234 sec  (  5.4%)
XC gradient                 ....       0.098 sec  (  2.3%)
------------------------------------------------------------------------------
                         ORCA GEOMETRY RELAXATION STEP
------------------------------------------------------------------------------

Reading the OPT-File                    .... done
Getting information on internals        .... done
Copying old internal coords+grads       .... done
Making the new internal coordinates     .... (new redundants).... done
Validating the new internal coordinates .... (new redundants).... done
Calculating the B-matrix                .... done
Calculating the G,G- and P matrices     .... done
Transforming gradient to internals      .... done
Projecting the internal gradient        .... done
Number of atoms                         ....   2
Number of internal coordinates          ....   1
Current Energy                          .... -1119.735514695 Eh
Current gradient norm                   ....     0.111343383 Eh/bohr
Maximum allowed component of the step   ....  0.300
Current trust radius                    ....  0.300
Updating the Hessian (BFGS)             .... done
Forming the augmented Hessian           .... done
Diagonalizing the augmented Hessian     .... done
Last element of RFO vector              ....  0.675854594
Lowest eigenvalues of augmented Hessian:
 -0.085858584
Length of the computed step             ....  1.090523006
Warning: the length of the step is outside the trust region - taking restricted step instead
The input lambda is                     ....    -0.085859
   iter:   1  x=   -0.119225  g=   32.944703 f(x)=     1.099240
   iter:   2  x=   -0.163466  g=   10.539021 f(x)=     0.466262
   iter:   3  x=   -0.213963  g=    3.687726 f(x)=     0.186218
   iter:   4  x=   -0.255774  g=    1.542700 f(x)=     0.064502
   iter:   5  x=   -0.273800  g=    0.873537 f(x)=     0.015747
   iter:   6  x=   -0.276071  g=    0.704234 f(x)=     0.001599
   iter:   7  x=   -0.276101  g=    0.686111 f(x)=     0.000021
   iter:   8  x=   -0.276101  g=    0.685875 f(x)=     0.000000
   iter:   9  x=   -0.276101  g=    0.685875 f(x)=     0.000000
The output lambda is                    ....    -0.276101 (9 iterations)
The final length of the internal step   ....  0.300000000
Converting the step to cartesian space:
 Initial RMS(Int)=    0.3000000000
Transforming coordinates:
 Iter   0:  RMS(Cart)=    0.0866025404 RMS(Int)=    0.3000000000
 Iter   1:  RMS(Cart)=    0.0000000000 RMS(Int)=    0.0000000000
done
Storing new coordinates                 .... done

                                .--------------------.
          ----------------------|Geometry convergence|-------------------------
          Item                value                   Tolerance       Converged
          ---------------------------------------------------------------------
          Energy change      -0.0098279225            0.0000050000      NO
          RMS gradient        0.0787315664            0.0001000000      NO
          MAX gradient        0.0787315664            0.0003000000      NO
          RMS step            0.3000000000            0.0020000000      NO
          MAX step            0.3000000000            0.0040000000      NO
          ........................................................
          Max(Bonds)      0.1588      Max(Angles)    0.00
          Max(Dihed)        0.00      Max(Improp)    0.00
          ---------------------------------------------------------------------

The optimization has not yet converged - more geometry cycles are needed


    ---------------------------------------------------------------------------
                         Redundant Internal Coordinates
                            (Angstroem and degrees)

        Definition                    Value    dE/dq     Step     New-Value
    ----------------------------------------------------------------------------
     1. B(O   1,Cr  0)                1.9334  0.078732 -0.1588    1.7747   
    ----------------------------------------------------------------------------

         *************************************************************
         *                GEOMETRY OPTIMIZATION CYCLE   3            *
         *************************************************************
---------------------------------
CARTESIAN COORDINATES (ANGSTROEM)
---------------------------------
  Cr     0.000000    0.000000    0.112674
  O      0.000000    0.000000    1.887326

----------------------------
CARTESIAN COORDINATES (A.U.)
----------------------------
  NO LB      ZA    FRAG     MASS         X           Y           Z
   0 Cr   24.0000    0    52.000    0.000000    0.000000    0.212923
   1 O     8.0000    0    15.999    0.000000    0.000000    3.566529

--------------------------------
INTERNAL COORDINATES (ANGSTROEM)
--------------------------------
 Cr     0   0   0     0.000000000000     0.00000000     0.00000000
 O      1   0   0     1.774651582822     0.00000000     0.00000000

---------------------------
[...]
 105   0.0000       4.033644       109.7610 
 106   0.0000       4.034469       109.7835 
 107   0.0000       4.114683       111.9662 
 108   0.0000       4.839110       131.6789 
 109   0.0000       6.001225       163.3016 
 110   0.0000       6.001240       163.3020 
 111   0.0000       6.034373       164.2036 
 112   0.0000       6.035745       164.2410 
 113   0.0000       6.056579       164.8079 
 114   0.0000       6.111146       166.2927 
 115   0.0000       6.111729       166.3086 
 116   0.0000       6.128036       166.7523 
 117   0.0000       6.131688       166.8517 
 118   0.0000       6.205869       168.8703 
 119   0.0000       6.215944       169.1444 
 120   0.0000       6.324795       172.1064 
 121   0.0000       6.398225       174.1046 
 122   0.0000       6.404814       174.2838 
 123   0.0000       6.532845       177.7678 
 124   0.0000       6.534051       177.8006 
 125   0.0000       6.563863       178.6118 
 126   0.0000       6.564380       178.6259 
 127   0.0000       6.564433       178.6273 
 128   0.0000       6.571915       178.8309 
 129   0.0000       6.695054       182.1817 
 130   0.0000       6.698401       182.2728 
 131   0.0000       6.835373       185.9999 
 132   0.0000       6.842281       186.1879 
 133   0.0000       6.937392       188.7760 
 134   0.0000       7.005105       190.6186 
 135   0.0000       7.006005       190.6431 
 136   0.0000       7.357340       200.2034 
 137   0.0000       8.099970       220.4114 
 138   0.0000      10.885394       296.2066 

                 SPIN DOWN ORBITALS
  NO   OCC          E(Eh)            E(eV) 
   0   1.0000    -214.970569     -5849.6466 
   1   1.0000     -24.341363      -662.3621 
   2   1.0000     -20.661726      -562.2342 
   3   1.0000     -20.652861      -561.9929 
   4   1.0000     -20.638854      -561.6118 
   5   1.0000     -18.879708      -513.7430 
   6   1.0000      -2.703377       -73.5626 
   7   1.0000      -1.708135       -46.4807 
   8   1.0000      -1.675302       -45.5873 
   9   1.0000      -1.644375       -44.7457 
  10   1.0000      -0.824437       -22.4341 
  11   1.0000      -0.299076        -8.1383 
  12   1.0000      -0.295655        -8.0452 
  13   1.0000      -0.270530        -7.3615 
  14   0.0000      -0.109354        -2.9757 
  15   0.0000      -0.087191        -2.3726 
  16   0.0000      -0.080850        -2.2000 
  17   0.0000      -0.080730        -2.1968 
  18   0.0000      -0.059829        -1.6280 
  19   0.0000      -0.050904        -1.3852 
  20   0.0000       0.008149         0.2217 
  21   0.0000       0.012560         0.3418 
  22   0.0000       0.016666         0.4535 
  23   0.0000       0.020280         0.5519 
  24   0.0000       0.047144         1.2828 
  25   0.0000       0.050451         1.3728 
  26   0.0000       0.061826         1.6824 
  27   0.0000       0.063118         1.7175 
  28   0.0000       0.065011         1.7690 
  29   0.0000       0.066267         1.8032 
  30   0.0000       0.066649         1.8136 
  31   0.0000       0.078039         2.1236 
  32   0.0000       0.133723         3.6388 
  33   0.0000       0.172874         4.7042 
  34   0.0000       0.175058         4.7636 
  35   0.0000       0.196519         5.3476 
  36   0.0000       0.198518         5.4019 
  37   0.0000       0.199557         5.4302 
  38   0.0000       0.222810         6.0630 
  39   0.0000       0.229494         6.2448 
  40   0.0000       0.229922         6.2565 
  41   0.0000       0.240006         6.5309 
  42   0.0000       0.241917         6.5829 
  43   0.0000       0.283034         7.7017 
  44   0.0000       0.455984        12.4080 
  45   0.0000       0.493035        13.4162 
  46   0.0000       0.493445        13.4273 
  47   0.0000       0.547844        14.9076 
  48   0.0000       0.547912        14.9094 
  49   0.0000       0.596088        16.2204 
  50   0.0000       0.601401        16.3650 
  51   0.0000       0.608977        16.5711 
  52   0.0000       0.640385        17.4257 
  53   0.0000       0.643666        17.5150 
  54   0.0000       0.681671        18.5492 
  55   0.0000       0.715151        19.4603 
  56   0.0000       0.716391        19.4940 
  57   0.0000       0.724844        19.7240 
  58   0.0000       0.725792        19.7498 
  59   0.0000       0.732916        19.9437 
  60   0.0000       0.826585        22.4925 
  61   0.0000       0.840066        22.8593 
  62   0.0000       0.855094        23.2683 
  63   0.0000       0.855676        23.2841 
  64   0.0000       1.077860        29.3301 
  65   0.0000       1.244607        33.8675 
  66   0.0000       1.260752        34.3068 
  67   0.0000       1.270969        34.5848 
  68   0.0000       1.614782        43.9404 
  69   0.0000       1.643694        44.7272 
  70   0.0000       1.643818        44.7306 
  71   0.0000       1.656679        45.0805 
  72   0.0000       1.670597        45.4593 
  73   0.0000       1.783134        48.5215 
  74   0.0000       1.783152        48.5220 
  75   0.0000       1.807221        49.1770 
  76   0.0000       1.807247        49.1777 
  77   0.0000       1.832919        49.8763 
  78   0.0000       1.938309        52.7441 
  79   0.0000       1.973607        53.7046 
  80   0.0000       1.976785        53.7911 
  81   0.0000       2.034606        55.3644 
  82   0.0000       2.046224        55.6806 
  83   0.0000       2.086511        56.7768 
  84   0.0000       2.087518        56.8042 
  85   0.0000       2.177264        59.2464 
  86   0.0000       2.178208        59.2721 
  87   0.0000       2.291387        62.3518 
  88   0.0000       2.307210        62.7824 
  89   0.0000       2.313660        62.9579 
  90   0.0000       2.313972        62.9664 
  91   0.0000       2.324709        63.2585 
  92   0.0000       2.518984        68.5450 
  93   0.0000       2.525542        68.7235 
  94   0.0000       2.535644        68.9984 
  95   0.0000       2.755437        74.9793 
  96   0.0000       2.756072        74.9965 
  97   0.0000       2.808538        76.4242 
  98   0.0000       2.963766        80.6482 
  99   0.0000       3.164672        86.1151 
 100   0.0000       3.180259        86.5393 
 101   0.0000       3.295678        89.6799 
 102   0.0000       3.296079        89.6909 
 103   0.0000       3.527977        96.0011 
 104   0.0000       3.552901        96.6794 
 105   0.0000       4.025699       109.5448 
 106   0.0000       4.048510       110.1656 
 107   0.0000       4.164539       113.3229 
 108   0.0000       4.856135       132.1422 
 109   0.0000       6.100325       165.9983 
 110   0.0000       6.100826       166.0119 
 111   0.0000       6.106099       166.1554 
 112   0.0000       6.160754       167.6426 
 113   0.0000       6.160767       167.6430 
 114   0.0000       6.166364       167.7953 
 115   0.0000       6.171070       167.9234 
 116   0.0000       6.181311       168.2020 
 117   0.0000       6.202640       168.7824 
 118   0.0000       6.203820       168.8145 
 119   0.0000       6.211234       169.0163 
 120   0.0000       6.393071       173.9643 
 121   0.0000       6.429006       174.9421 
 122   0.0000       6.451975       175.5672 
 123   0.0000       6.553773       178.3372 
 124   0.0000       6.562793       178.5827 
 125   0.0000       6.643535       180.7798 
 126   0.0000       6.644477       180.8054 
 127   0.0000       6.662308       181.2906 
 128   0.0000       6.662380       181.2926 
 129   0.0000       6.779749       184.4863 
 130   0.0000       6.781363       184.5303 
 131   0.0000       6.901896       187.8102 
 132   0.0000       6.926255       188.4730 
 133   0.0000       6.966713       189.5739 
 134   0.0000       7.003251       190.5681 
 135   0.0000       7.026286       191.1950 
 136   0.0000       7.398341       201.3191 
 137   0.0000       8.210255       223.4124 
 138   0.0000      10.884517       296.1828 

                    ********************************
                    * MULLIKEN POPULATION ANALYSIS *
                    ********************************

--------------------------------------------
MULLIKEN ATOMIC CHARGES AND SPIN POPULATIONS
--------------------------------------------
   0 Cr:    0.554850    4.207866
   1 O :   -0.554850   -0.207866
Sum of atomic charges         :   -0.0000000
Sum of atomic spin populations:    4.0000000

-----------------------------------------------------
MULLIKEN REDUCED ORBITAL CHARGES AND SPIN POPULATIONS
-----------------------------------------------------
CHARGE
  0 Crs       :     6.727993  s :     6.727993
      pz      :     4.034605  p :    12.184998
      px      :     4.111230
      py      :     4.039163
      dz2     :     0.832699  d :     4.504617
      dxz     :     1.027150
      dyz     :     0.652854
      dx2y2   :     0.996008
      dxy     :     0.995905
      f0      :     0.004190  f :     0.021266
      f+1     :     0.009854
      f-1     :     0.006733
      f+2     :     0.000232
      f-2     :     0.000233
      f+3     :     0.000011
      f-3     :     0.000012
      g0      :     0.001191  g :     0.006276
      g+1     :     0.002821
      g-1     :     0.002248
      g+2     :     0.000003
      g-2     :     0.000004
      g+3     :     0.000001
      g-3     :     0.000002
      g+4     :     0.000003
      g-4     :     0.000003
  1 O s       :     3.967046  s :     3.967046
      pz      :     1.433453  p :     4.564601
      px      :     1.690612
      py      :     1.440536
      dz2     :     0.003083  d :     0.019302
      dxz     :     0.006839
      dyz     :     0.007532
      dx2y2   :     0.000924
      dxy     :     0.000924
      f0      :     0.000846  f :     0.003901
      f+1     :     0.001223
      f-1     :     0.001161
      f+2     :     0.000327
      f-2     :     0.000327
      f+3     :     0.000008
      f-3     :     0.000008

SPIN
  0 Crs       :     0.653439  s :     0.653439
      pz      :     0.029721  p :     0.133301
      px      :     0.086753
      py      :     0.016827
      dz2     :     0.392853  d :     3.421433
      dxz     :     0.707463
      dyz     :     0.329576
      dx2y2   :     0.995826
      dxy     :     0.995715
      f0      :    -0.001472  f :     0.001565
      f+1     :     0.002870
      f-1     :    -0.000263
      f+2     :     0.000216
      f-2     :     0.000217
      f+3     :    -0.000002
      f-3     :    -0.000002
      g0      :    -0.000536  g :    -0.001872
      g+1     :    -0.000403
      g-1     :    -0.000941
      g+2     :     0.000001
      g-2     :     0.000001
      g+3     :    -0.000001
      g-3     :    -0.000000
      g+4     :     0.000003
      g-4     :     0.000003
  1 O s       :    -0.002952  s :    -0.002952
      pz      :    -0.066476  p :    -0.210222
      px      :     0.052571
      py      :    -0.196317
      dz2     :     0.001132  d :     0.004027
      dxz     :     0.000176
      dyz     :     0.000956
      dx2y2   :     0.000882
      dxy     :     0.000880
      f0      :    -0.000103  f :     0.001282
      f+1     :     0.000331
      f-1     :     0.000422
      f+2     :     0.000324
      f-2     :     0.000324
      f+3     :    -0.000008
      f-3     :    -0.000008


                     *******************************
                     * LOEWDIN POPULATION ANALYSIS *
                     *******************************

-------------------------------------------
LOEWDIN ATOMIC CHARGES AND SPIN POPULATIONS
-------------------------------------------
   0 Cr:    0.550789    4.012130
   1 O :   -0.550789   -0.012130

----------------------------------------------------
LOEWDIN REDUCED ORBITAL CHARGES AND SPIN POPULATIONS
----------------------------------------------------
CHARGE
  0 Crs       :     6.383487  s :     6.383487
      pz      :     4.117123  p :    12.163508
      px      :     4.079827
      py      :     3.966558
      dz2     :     0.954155  d :     4.586330
      dxz     :     1.015992
      dyz     :     0.661116
      dx2y2   :     0.977587
      dxy     :     0.977479
      f0      :     0.114277  f :     0.251923
      f+1     :     0.078713
      f-1     :     0.056159
      f+2     :     0.001375
      f-2     :     0.001376
      f+3     :     0.000011
      f-3     :     0.000012
      g0      :     0.024530  g :     0.063963
      g+1     :     0.022135
      g-1     :     0.016767
      g+2     :     0.000261
      g-2     :     0.000260
      g+3     :     0.000001
      g-3     :     0.000002
      g+4     :     0.000003
      g-4     :     0.000003
  1 O s       :     3.539956  s :     3.539956
      pz      :     1.614862  p :     4.498464
      px      :     1.533367
      py      :     1.350235
      dz2     :     0.175368  d :     0.336812
      dxz     :     0.076192
      dyz     :     0.064378
      dx2y2   :     0.010435
      dxy     :     0.010439
      f0      :     0.081349  f :     0.175558
      f+1     :     0.043503
      f-1     :     0.035016
      f+2     :     0.007835
      f-2     :     0.007839
      f+3     :     0.000008
      f-3     :     0.000008

SPIN
  0 Crs       :     0.590267  s :     0.590267
      pz      :     0.034583  p :     0.172467
      px      :     0.123727
      py      :     0.014158
      dz2     :     0.366052  d :     3.249439
      dxz     :     0.642513
      dyz     :     0.286178
      dx2y2   :     0.977406
      dxy     :     0.977290
      f0      :    -0.001845  f :     0.002753
      f+1     :     0.012093
      f-1     :    -0.010208
      f+2     :     0.001359
      f-2     :     0.001358
      f+3     :    -0.000002
      f-3     :    -0.000002
      g0      :    -0.001151  g :    -0.002797
      g+1     :     0.001689
      g-1     :    -0.003855
      g+2     :     0.000258
      g-2     :     0.000257
      g+3     :    -0.000001
      g-3     :    -0.000000
      g+4     :     0.000003
      g-4     :     0.000003
  1 O s       :     0.026193  s :     0.026193
      pz      :    -0.015209  p :    -0.134905
      px      :     0.032912
      py      :    -0.152608
      dz2     :     0.003087  d :     0.057256
      dxz     :     0.022549
      dyz     :     0.010830
      dx2y2   :     0.010394
      dxy     :     0.010396
      f0      :     0.003630  f :     0.039327
      f+1     :     0.014279
      f-1     :     0.005765
      f+2     :     0.007832
      f-2     :     0.007836
      f+3     :    -0.000008
      f-3     :    -0.000008


                      *****************************
                      * MAYER POPULATION ANALYSIS *
                      *****************************

  NA   - Mulliken gross atomic population
  ZA   - Total nuclear charge
  QA   - Mulliken gross atomic charge
  VA   - Mayer's total valence
  BVA  - Mayer's bonded valence
  FA   - Mayer's free valence

  ATOM       NA         ZA         QA         VA         BVA        FA
  0 Cr    23.4451    24.0000     0.5549     5.8317     2.1256     3.7061
  1 O      8.5549     8.0000    -0.5549     2.2140     2.1256     0.0884

  Mayer bond orders larger than 0.100000
B(  0-Cr,  1-O ) :   2.1256 

-------
TIMINGS
-------

Total SCF time: 0 days 0 hours 0 min 2 sec 

Total time                  ....       2.607 sec
Sum of individual times     ....       2.443 sec  ( 93.7%)

Fock matrix formation       ....       2.203 sec  ( 84.5%)
  Split-RI-J                ....       1.612 sec  ( 73.2% of F)
  XC integration            ....       0.237 sec  ( 10.7% of F)
    Basis function eval.    ....       0.027 sec  ( 11.6% of XC)
    Density eval.           ....       0.035 sec  ( 14.7% of XC)
    XC-Functional eval.     ....       0.008 sec  (  3.5% of XC)
    XC-Potential eval.      ....       0.088 sec  ( 37.4% of XC)
Diagonalization             ....       0.065 sec  (  2.5%)
Density matrix formation    ....       0.008 sec  (  0.3%)
Population analysis         ....       0.007 sec  (  0.3%)
Initial guess               ....       0.014 sec  (  0.5%)
Orbital Transformation      ....       0.000 sec  (  0.0%)
Orbital Orthonormalization  ....       0.009 sec  (  0.3%)
DIIS solution               ....       0.020 sec  (  0.8%)
Grid generation             ....       0.125 sec  (  4.8%)


-------------------------------------------------------------------------------
                          DFT DISPERSION CORRECTION                            
                                                                               
                              DFTD3 V3.1  Rev 1                                
                          USING Becke-Johnson damping                          
-------------------------------------------------------------------------------
The TPSS functional is recognized
Active option DFTDOPT                   ...         4   

molecular C6(AA) [au] = 484.273128 


            DFT-D V3
 parameters
 s6 scaling factor         :     1.0000 
 a1 scaling factor         :     0.4535 
 s8 scaling factor         :     1.9435 
 a2 scaling factor         :     4.4752 
 ad hoc parameters k1-k3   :    16.0000     1.3333    -4.0000 

 Edisp/kcal,au: -0.529281779922  -0.000843464115 
 E6   /kcal   :  -0.210425252 
 E8   /kcal   :  -0.318856528 
 % E8         :  60.243246605 

-------------------------   ----------------
Dispersion correction           -0.000843464
-------------------------   ----------------


-------------------------   --------------------
FINAL SINGLE POINT ENERGY     -1119.770667658057
-------------------------   --------------------

                                *** OPTIMIZATION RUN DONE ***

                            ***************************************
                            *     ORCA property calculations      *
                            ***************************************

                                    ---------------------
                                    Active property flags
                                    ---------------------
   (+) Dipole Moment


------------------------------------------------------------------------------
                       ORCA ELECTRIC PROPERTIES CALCULATION
------------------------------------------------------------------------------

Dipole Moment Calculation                       ... on
Quadrupole Moment Calculation                   ... off
Polarizability Calculation                      ... off
GBWName                                         ... 23_CrO.gbw
Electron density file                           ... 23_CrO.scfp
The origin for moment calculation is the CENTER OF MASS  = ( 0.000000,  0.000000  1.081983)

-------------
DIPOLE MOMENT
-------------
                                X             Y             Z
Electronic contribution:      0.00000       0.00000      -2.90419
Nuclear contribution   :      0.00000       0.00000       1.43702
                        -----------------------------------------
Total Dipole Moment    :      0.00000       0.00000      -1.46717
                        -----------------------------------------
Magnitude (a.u.)       :      1.46717
Magnitude (Debye)      :      3.72924



--------------------
Rotational spectrum 
--------------------
 
Rotational constants in cm-1:     0.000000     0.528468     0.528468 
Rotational constants in MHz :     0.000000 15843.074100 15843.074100 

 Dipole components along the rotational axes: 
x,y,z [a.u.] :    -1.467168     0.000000     0.000000 
x,y,z [Debye]:    -3.729245     0.000000     0.000000 

 

Timings for individual modules:

Sum of individual times         ...      104.028 sec (=   1.734 min)
GTO integral calculation        ...       18.170 sec (=   0.303 min)  17.5 %
SCF iterations                  ...       57.550 sec (=   0.959 min)  55.3 %
SCF Gradient evaluation         ...       28.104 sec (=   0.468 min)  27.0 %
Geometry relaxation             ...        0.204 sec (=   0.003 min)   0.2 %
                             ****ORCA TERMINATED NORMALLY****
TOTAL RUN TIME: 0 days 0 hours 1 minutes 45 seconds 5 msec
