
                                 *****************
                                 * O   R   C   A *
                                 *****************

           --- An Ab Initio, DFT and Semiempirical electronic structure package ---

                  #######################################################
                  #                        -***-                        #
                  #          Department of theory and spectroscopy      #
                  #               Directorship: Frank Neese             #
                  #        Max Planck Institute fuer Kohlenforschung    #
                  #                Kaiser Wilhelm Platz 1               #
                  #                 D-45470 Muelheim/Ruhr               #
                  #                      Germany                        #
                  #                                                     #
                  #                  All rights reserved                #
                  #                        -***-                        #
                  #######################################################


                         Program Version 4.2.0 -  RELEASE  -


 With contributions from (in alphabetic order):
   Daniel Aravena         : Magnetic Suceptibility
   Michael Atanasov       : Ab Initio Ligand Field Theory (pilot matlab implementation)
   Alexander A. Auer      : GIAO ZORA, VPT2
   Ute Becker             : Parallelization
   Giovanni Bistoni       : ED, misc. LED, open-shell LED, HFLED
   Martin Brehm           : Molecular dynamics
   Dmytro Bykov           : SCF Hessian
   Vijay G. Chilkuri      : MRCI spin determinant printing, contributions to CSF-ICE
   Dipayan Datta          : RHF DLPNO-CCSD density
   Achintya Kumar Dutta   : EOM-CC, STEOM-CC
   Dmitry Ganyushin       : Spin-Orbit,Spin-Spin,Magnetic field MRCI
   Miquel Garcia          : C-PCM Hessian, Gaussian charge scheme
   Yang Guo               : DLPNO-NEVPT2, CIM, IAO-localization
   Andreas Hansen         : Spin unrestricted coupled pair/coupled cluster methods
   Benjamin Helmich-Paris : CASSCF linear response (MC-RPA)
   Lee Huntington         : MR-EOM, pCC
   Robert Izsak           : Overlap fitted RIJCOSX, COSX-SCS-MP3, EOM
   Christian Kollmar      : KDIIS, OOCD, Brueckner-CCSD(T), CCSD density
   Simone Kossmann        : Meta GGA functionals, TD-DFT gradient, OOMP2, MP2 Hessian
   Martin Krupicka        : AUTO-CI
   Lucas Lang             : DCDCAS
   Dagmar Lenk            : GEPOL surface, SMD
   Dimitrios Liakos       : Extrapolation schemes; Compound Job, initial MDCI parallelization
   Dimitrios Manganas     : Further ROCIS development; embedding schemes
   Dimitrios Pantazis     : SARC Basis sets
   Taras Petrenko         : DFT Hessian,TD-DFT gradient, ASA, ECA, R-Raman, ABS, FL, XAS/XES, NRVS
   Peter Pinski           : DLPNO-MP2, DLPNO-MP2 Gradient
   Christoph Reimann      : Effective Core Potentials
   Marius Retegan         : Local ZFS, SOC
   Christoph Riplinger    : Optimizer, TS searches, QM/MM, DLPNO-CCSD(T), (RO)-DLPNO pert. Triples
   Tobias Risthaus        : Range-separated hybrids, TD-DFT gradient, RPA, STAB
   Michael Roemelt        : Original ROCIS implementation
   Masaaki Saitow         : Open-shell DLPNO-CCSD energy and density
   Barbara Sandhoefer     : DKH picture change effects
   Avijit Sen             : IP-ROCIS
   Kantharuban Sivalingam : CASSCF convergence, NEVPT2, FIC-MRCI
   Bernardo de Souza      : ESD, SOC TD-DFT
   Georgi Stoychev        : AutoAux, RI-MP2 NMR
   Willem Van den Heuvel  : Paramagnetic NMR
   Boris Wezisla          : Elementary symmetry handling
   Frank Wennmohs         : Technical directorship


 We gratefully acknowledge several colleagues who have allowed us to
 interface, adapt or use parts of their codes:
   Stefan Grimme, W. Hujo, H. Kruse,             : VdW corrections, initial TS optimization,
                  C. Bannwarth                     DFT functionals, gCP, sTDA/sTD-DF
   Ed Valeev, F. Pavosevic, A. Kumar             : LibInt (2-el integral package), F12 methods
   Garnet Chan, S. Sharma, J. Yang, R. Olivares  : DMRG
   Ulf Ekstrom                                   : XCFun DFT Library
   Mihaly Kallay                                 : mrcc  (arbitrary order and MRCC methods)
   Andreas Klamt, Michael Diedenhofen            : otool_cosmo (COSMO solvation model)
   Jiri Pittner, Ondrej Demel                    : Mk-CCSD
   Frank Weinhold                                : gennbo (NPA and NBO analysis)
   Christopher J. Cramer and Donald G. Truhlar   : smd solvation model
   Lars Goerigk                                  : TD-DFT with DH, B97 family of functionals
   V. Asgeirsson, H. Jonsson                     : NEB implementation
   FAccTs GmbH                                   : IRC, NEB, NEB-TS, Multilevel, MM, QM/MM, CI optimization
   S Lehtola, MJT Oliveira, MAL Marques          : LibXC Library


 Your calculation uses the libint2 library for the computation of 2-el integrals
 For citations please refer to: http://libint.valeyev.net

 Your ORCA version has been built with support for libXC version: 4.2.3
 For citations please refer to: https://tddft.org/programs/libxc/

 This ORCA versions uses:
   CBLAS   interface :  Fast vector & matrix operations
   LAPACKE interface :  Fast linear algebra routines
   SCALAPACK package :  Parallel linear algebra routines


Your calculation utilizes the atom-pairwise dispersion correction
with the Becke-Johnson damping scheme (D3BJ)
Cite in your paper:
S.Grimme, S.Ehrlich, L.Goerigk, J Comput Chem, (2011), 32, 1456–1465 
S.Grimme, J.Antony, S.Ehrlich and H.Krieg, J.Chem.Phys., 132, (2010), 154104 
   

----- Orbital basis set information -----
Your calculation utilizes the basis: aug-cc-pVTZ 
    H, B-Ne : Obtained from the ccRepo (grant-hill.group.shef.ac.uk/ccrepo) Feb. 2017
              R. A. Kendall, T. H. Dunning, Jr., R. J. Harrison, J. Chem. Phys. 96, 6796 (1992)
         He : Obtained from the ccRepo (grant-hill.group.shef.ac.uk/ccrepo) Feb. 2017
              D. E. Woon, T. H. Dunning, Jr., J. Chem. Phys. 100, 2975 (1994)
  Li-Be, Na : Obtained from the ccRepo (grant-hill.group.shef.ac.uk/ccrepo) Feb. 2017
              B. P. Prascher, D. E. Woon, K. A. Peterson, T. H. Dunning, Jr., A. K. Wilson, Theor. Chem. Acc. 128, 69 (2011)
         Mg : Obtained from the Peterson Research Group Website (tyr0.chem.wsu.edu/~kipeters) Feb. 2017
              B. P. Prascher, D. E. Woon, K. A. Peterson, T. H. Dunning, Jr., A. K. Wilson, Theor. Chem. Acc. 128, 69 (2011)
      Al-Ar : Obtained from the ccRepo (grant-hill.group.shef.ac.uk/ccrepo) Feb. 2017
              D. E. Woon, T. H. Dunning, Jr., J. Chem. Phys. 98, 1358 (1993)
      Sc-Zn : Obtained from the ccRepo (grant-hill.group.shef.ac.uk/ccrepo) Feb. 2017
              N. B. Balabanov, K. A. Peterson, J. Chem. Phys. 123, 064107 (2005)
              N. B. Balabanov, K. A. Peterson, J. Chem. Phys. 125, 074110 (2006)
      Ga-Kr : Obtained from the ccRepo (grant-hill.group.shef.ac.uk/ccrepo) Feb. 2017
              A. K. Wilson, D. E. Woon, K. A. Peterson, T. H. Dunning, Jr., J. Chem. Phys. 110, 7667 (1999)
     Ag, Au : Obtained from the Peterson Research Group Website (tyr0.chem.wsu.edu/~kipeters) Feb. 2017
              K. A. Peterson, C. Puzzarini, Theor. Chem. Acc. 114, 283 (2005)

----- AuxJ basis set information -----
Your calculation utilizes the auxiliary basis: def2/J
   F. Weigend, Phys. Chem. Chem. Phys. 8, 1057 (2006).

================================================================================
                                        WARNINGS
                       Please study these warnings very carefully!
================================================================================


WARNING: your system is open-shell and RHF/RKS was chosen
  ===> : WILL SWITCH to UHF/UKS


WARNING: Geometry Optimization
  ===> : Switching off AutoStart
         For restart on a previous wavefunction, please use MOREAD

INFO   : the flag for use of LIBINT has been found!

================================================================================
                                       INPUT FILE
================================================================================
NAME = 26_MnF.in
|  1> #
|  2> # 26_MnF tpss/aug-cc-pvtz
|  3> #
|  4> ! tpss d3bj aug-cc-pvtz def2/j opt xyzfile
|  5> 
|  6> *xyz 0 7
|  7> Mn 0.0 0.0 0.0
|  8> F 0.0 0.0 2.0
|  9> *
| 10> 
| 11> %pal
| 12> nprocs 24
| 13> end
| 14> 
| 15> 
| 16>                          ****END OF INPUT****
================================================================================

                       *****************************
                       * Geometry Optimization Run *
                       *****************************

Geometry optimization settings:
Update method            Update   .... BFGS
Choice of coordinates    CoordSys .... Z-matrix Internals
Initial Hessian          InHess   .... Almoef's Model

Convergence Tolerances:
Energy Change            TolE     ....  5.0000e-06 Eh
Max. Gradient            TolMAXG  ....  3.0000e-04 Eh/bohr
RMS Gradient             TolRMSG  ....  1.0000e-04 Eh/bohr
Max. Displacement        TolMAXD  ....  4.0000e-03 bohr
RMS Displacement         TolRMSD  ....  2.0000e-03 bohr
Strict Convergence                ....  False
------------------------------------------------------------------------------
                        ORCA OPTIMIZATION COORDINATE SETUP
------------------------------------------------------------------------------

The optimization will be done in new redundant internal coordinates
Making redundant internal coordinates   ...  (new redundants) done
Evaluating the initial hessian          ...  (Almloef) done
Evaluating the coordinates              ...  done
Calculating the B-matrix                .... done
Calculating the G-matrix                .... done
Diagonalizing the G-matrix              .... done
The first mode is                       ....    0
The number of degrees of freedom        ....    1

    -----------------------------------------------------------------
                    Redundant Internal Coordinates


    -----------------------------------------------------------------
         Definition                    Initial Value    Approx d2E/dq
    -----------------------------------------------------------------
      1. B(F   1,Mn  0)                  2.0000         0.559597   
    -----------------------------------------------------------------

Number of atoms                         .... 2
Number of degrees of freedom            .... 1

         *************************************************************
         *                GEOMETRY OPTIMIZATION CYCLE   1            *
         *************************************************************
---------------------------------
CARTESIAN COORDINATES (ANGSTROEM)
---------------------------------
  Mn     0.000000    0.000000    0.000000
  F      0.000000    0.000000    2.000000

----------------------------
CARTESIAN COORDINATES (A.U.)
----------------------------
  NO LB      ZA    FRAG     MASS         X           Y           Z
   0 Mn   25.0000    0    54.940    0.000000    0.000000    0.000000
   1 F     9.0000    0    18.998    0.000000    0.000000    3.779452

--------------------------------
INTERNAL COORDINATES (ANGSTROEM)
--------------------------------
 Mn     0   0   0     0.000000000000     0.00000000     0.00000000
 F      1   0   0     2.000000000000     0.00000000     0.00000000

---------------------------
INTERNAL COORDINATES (A.U.)
---------------------------
 Mn     0   0   0     0.000000000000     0.00000000     0.00000000
 F      1   0   0     3.779452267843     0.00000000     0.00000000

---------------------
BASIS SET INFORMATION
---------------------
There are 2 groups of distinct atoms

 Group   1 Type Mn  : 116s77p23d3f2g contracted to 8s7p5d3f2g pattern {19191919191911/151515151511/77711/111/11}
 Group   2 Type F   : 19s6p3d2f contracted to 5s4p3d2f pattern {88111/3111/111/11}

Atom   0Mn   basis set group =>   1
Atom   1F    basis set group =>   2
---------------------------------
AUXILIARY/J BASIS SET INFORMATION
---------------------------------
There are 2 groups of distinct atoms

 Group   1 Type Mn  : 19s5p5d3f3g contracted to 8s5p5d2f3g pattern {121111111/11111/11111/21/111}
 Group   2 Type F   : 12s5p4d2f1g contracted to 6s4p3d1f1g pattern {711111/2111/211/2/1}

Atom   0Mn   basis set group =>   1
Atom   1F    basis set group =>   2


           ************************************************************
           *        Program running with 24 parallel MPI-processes    *
           *              working on a common directory               *
           ************************************************************
------------------------------------------------------------------------------
                           ORCA GTO INTEGRAL CALCULATION
                           -- RI-GTO INTEGRALS CHOSEN --
------------------------------------------------------------------------------

                         BASIS SET STATISTICS AND STARTUP INFO

Gaussian basis set:
 # of primitive gaussian shells          ...  251
 # of primitive gaussian functions       ...  567
 # of contracted shells                  ...   39
 # of contracted basis functions         ...  139
 Highest angular momentum                ...    4
 Maximum contraction depth               ...   19
Auxiliary gaussian basis set:
 # of primitive gaussian shells          ...   59
 # of primitive gaussian functions       ...  177
 # of contracted shells                  ...   38
 # of contracted aux-basis functions     ...  138
 Highest angular momentum                ...    4
 Maximum contraction depth               ...   12
Ratio of auxiliary to basis functions    ...  0.99
Integral package used                  ... LIBINT
 One Electron integrals                  ... done
 Ordering auxiliary basis shells         ... done
 Integral threshhold             Thresh  ...  2.500e-11
 Primitive cut-off               TCut    ...  2.500e-12
 Pre-screening matrix                    ... done
 Shell pair data                         ... 
 Ordering of the shell pairs             ... done (   0.000 sec) 780 of 780 pairs
 Determination of significant pairs      ... done (   0.000 sec)
 Creation of shell pair data             ... done (   0.001 sec)
 Storage of shell pair data              ... done (   0.005 sec)
 Shell pair data done in (   0.007 sec)
 Computing two index integrals           ... done
 Cholesky decomposition of the V-matrix  ... done


Timings:
 Total evaluation time                   ...   2.176 sec (  0.036 min)
 One electron matrix time                ...   0.039 sec (  0.001 min) =  1.8%
 Schwartz matrix evaluation time         ...   2.101 sec (  0.035 min) = 96.6%
 Two index repulsion integral time       ...   0.001 sec (  0.000 min) =  0.0%
 Cholesky decomposition of V             ...   0.001 sec (  0.000 min) =  0.0%
 Three index repulsion integral time     ...   0.000 sec (  0.000 min) =  0.0%



           ************************************************************
           *        Program running with 24 parallel MPI-processes    *
           *              working on a common directory               *
           ************************************************************
-------------------------------------------------------------------------------
                                 ORCA SCF
-------------------------------------------------------------------------------

------------
SCF SETTINGS
------------
Hamiltonian:
 Density Functional     Method          .... DFT(GTOs)
 Exchange Functional    Exchange        .... TPSS
 Correlation Functional Correlation     .... TPSS
 LDA part of GGA corr.  LDAOpt          .... PW91-LDA
 Gradients option       PostSCFGGA      .... off
   Density functional embedding theory  .... OFF
   NL short-range parameter             ....  5.000000
 RI-approximation to the Coulomb term is turned on
   Number of auxiliary basis functions  .... 138


General Settings:
 Integral files         IntName         .... 26_MnF
 Hartree-Fock type      HFTyp           .... UHF
 Total Charge           Charge          ....    0
 Multiplicity           Mult            ....    7
 Number of Electrons    NEL             ....   34
 Basis Dimension        Dim             ....  139
 Nuclear Repulsion      ENuc            ....     59.5324359338 Eh

Convergence Acceleration:
 DIIS                   CNVDIIS         .... on
   Start iteration      DIISMaxIt       ....    12
   Startup error        DIISStart       ....  0.200000
   # of expansion vecs  DIISMaxEq       ....     5
   Bias factor          DIISBfac        ....   1.050
   Max. coefficient     DIISMaxC        ....  10.000
 Newton-Raphson         CNVNR           .... off
 SOSCF                  CNVSOSCF        .... off
 Level Shifting         CNVShift        .... on
   Level shift para.    LevelShift      ....    0.2500
   Turn off err/grad.   ShiftErr        ....    0.0010
 Zerner damping         CNVZerner       .... off
 Static damping         CNVDamp         .... on
   Fraction old density DampFac         ....    0.7000
   Max. Damping (<1)    DampMax         ....    0.9800
   Min. Damping (>=0)   DampMin         ....    0.0000
   Turn off err/grad.   DampErr         ....    0.1000
 Fernandez-Rico         CNVRico         .... off

SCF Procedure:
 Maximum # iterations   MaxIter         ....   125
 SCF integral mode      SCFMode         .... Direct
   Integral package                     .... LIBINT
 Reset frequency        DirectResetFreq ....    20
 Integral Threshold     Thresh          ....  2.500e-11 Eh
 Primitive CutOff       TCut            ....  2.500e-12 Eh

Convergence Tolerance:
 Convergence Check Mode ConvCheckMode   .... Total+1el-Energy
 Convergence forced     ConvForced      .... 0
 Energy Change          TolE            ....  1.000e-08 Eh
 1-El. energy change                    ....  1.000e-05 Eh
 DIIS Error             TolErr          ....  5.000e-07


Diagonalization of the overlap matrix:
Smallest eigenvalue                        ... 6.731e-05
Time for diagonalization                   ...    0.005 sec
Threshold for overlap eigenvalues          ... 1.000e-08
Number of eigenvalues below threshold      ... 0
Time for construction of square roots      ...    0.002 sec
Total time needed                          ...    0.008 sec

-------------------
DFT GRID GENERATION
-------------------

General Integration Accuracy     IntAcc      ...  4.340
Radial Grid Type                 RadialGrid  ... Gauss-Chebyshev
Angular Grid (max. acc.)         AngularGrid ... Lebedev-110
Angular grid pruning method      GridPruning ... 3 (G Style)
Weight generation scheme         WeightScheme... Becke
Basis function cutoff            BFCut       ...    1.0000e-11
Integration weight cutoff        WCut        ...    1.0000e-14
Grids for H and He will be reduced by one unit

# of grid points (after initial pruning)     ...   4652 (   0.0 sec)
# of grid points (after weights+screening)   ...   4629 (   0.0 sec)
nearest neighbour list constructed           ...    0.0 sec
Grid point re-assignment to atoms done       ...    0.0 sec
Grid point division into batches done        ...    0.0 sec
Reduced shell lists constructed in    0.0 sec

Total number of grid points                  ...     4629
Total number of batches                      ...       73
Average number of points per batch           ...       63
Average number of grid points per atom       ...     2314
Average number of shells per batch           ...    21.20 (54.36%)
Average number of basis functions per batch  ...    62.80 (45.18%)
Average number of large shells per batch     ...    15.20 (71.70%)
Average number of large basis fcns per batch ...    44.00 (70.06%)
Maximum spatial batch extension              ...  19.25, 28.73, 16.15 au
Average spatial batch extension              ...   1.01,  1.32,  0.89 au

Time for grid setup =    0.049 sec

------------------------------
INITIAL GUESS: MODEL POTENTIAL
------------------------------
Loading Hartree-Fock densities                     ... done
Calculating cut-offs                               ... done
Setting up the integral package                    ... done
Initializing the effective Hamiltonian             ... done
Starting the Coulomb interaction                   ... done (   0.0 sec)
Reading the grid                                   ... done
Mapping shells                                     ... done
Starting the XC term evaluation                    ... done (   0.0 sec)
  promolecular density results
     # of electrons  =     34.000495754
     EX              =    -60.530242975
     EC              =     -1.378859407
     EX+EC           =    -61.909102382
Transforming the Hamiltonian                       ... done (   0.0 sec)
Diagonalizing the Hamiltonian                      ... done (   0.0 sec)
Back transforming the eigenvectors                 ... done (   0.0 sec)
Now organizing SCF variables                       ... done
                      ------------------
                      INITIAL GUESS DONE (   0.2 sec)
                      ------------------
--------------
SCF ITERATIONS
--------------
ITER       Energy         Delta-E        Max-DP      RMS-DP      [F,P]     Damp
               ***  Starting incremental Fock matrix formation  ***
  0  -1250.8510143279   0.000000000000 0.12965975  0.00195194  0.3115871 0.7000
  1  -1250.8695060265  -0.018491698552 0.05951894  0.00112580  0.0681028 0.7000
                               ***Turning on DIIS***
  2  -1250.8954881442  -0.025982117708 0.09299018  0.00180256  0.0564064 0.0000
  3  -1250.9268867819  -0.031398637732 0.01734886  0.00035578  0.1786930 0.7000
  4  -1250.9350829585  -0.008196176631 0.01181047  0.00025887  0.1589867 0.7000
  5  -1250.9417447529  -0.006661794341 0.00730312  0.00017572  0.1411244 0.7000
  6  -1250.9468992103  -0.005154457388 0.00528836  0.00012169  0.1256474 0.7000
  7  -1250.9511651708  -0.004265960536 0.01653755  0.00026514  0.1115324 0.7000
  8  -1250.9615331174  -0.010367946601 0.03253416  0.00076907  0.0573263 0.0000
  9  -1250.9693102150  -0.007777097565 0.02341139  0.00044784  0.0267362 0.0000
 10  -1250.9709602949  -0.001650079909 0.00847051  0.00017163  0.0119746 0.0000
 11  -1250.9711318594  -0.000171564521 0.00387483  0.00007273  0.0027462 0.0000
 12  -1250.9711574623  -0.000025602916 0.00152328  0.00002347  0.0003827 0.0000
 13  -1250.9711581948  -0.000000732520 0.00018513  0.00000431  0.0011024 0.0000
 14  -1250.9711596965  -0.000001501707 0.00017697  0.00000367  0.0005348 0.0000
 15  -1250.9711603158  -0.000000619305 0.00004932  0.00000082  0.0000526 0.0000
 16  -1250.9711603376  -0.000000021793 0.00001034  0.00000020  0.0000117 0.0000
 17  -1250.9711603144   0.000000023241 0.00000746  0.00000010  0.0000038 0.0000
                            ***DIIS convergence achieved***

               *****************************************************
               *                     SUCCESS                       *
               *           SCF CONVERGED AFTER  18 CYCLES          *
               *****************************************************

Setting up the final grid:

General Integration Accuracy     IntAcc      ...  4.670
Radial Grid Type                 RadialGrid  ... Gauss-Chebyshev
Angular Grid (max. acc.)         AngularGrid ... Lebedev-302
Angular grid pruning method      GridPruning ... 3 (G Style)
Weight generation scheme         WeightScheme... Becke
Basis function cutoff            BFCut       ...    1.0000e-11
Integration weight cutoff        WCut        ...    1.0000e-14
Grids for H and He will be reduced by one unit

# of grid points (after initial pruning)     ...  15936 (   0.0 sec)
# of grid points (after weights+screening)   ...  15893 (   0.0 sec)
nearest neighbour list constructed           ...    0.0 sec
Grid point re-assignment to atoms done       ...    0.0 sec
Grid point division into batches done        ...    0.1 sec
Reduced shell lists constructed in    0.1 sec

Total number of grid points                  ...    15893
Total number of batches                      ...      249
Average number of points per batch           ...       63
Average number of grid points per atom       ...     7946
Average number of shells per batch           ...    16.75 (42.95%)
Average number of basis functions per batch  ...    41.25 (29.68%)
Average number of large shells per batch     ...     9.75 (58.21%)
Average number of large basis fcns per batch ...    23.75 (57.58%)
Maximum spatial batch extension              ...  28.57, 31.41, 16.79 au
Average spatial batch extension              ...   0.89,  0.95,  0.67 au

Final grid set up in    0.1 sec
Final integration                            ... done (   0.0 sec)
Change in XC energy                          ...     0.001851237
Integrated number of electrons               ...    33.999996986
Previous integrated no of electrons          ...    33.999589313

----------------
TOTAL SCF ENERGY
----------------

Total Energy       :        -1250.96930910 Eh          -34040.60549 eV

Components:
Nuclear Repulsion  :           59.53243593 Eh            1619.95994 eV
Electronic Energy  :        -1310.50174504 Eh          -35660.56543 eV
One Electron Energy:        -1844.21926398 Eh          -50183.75747 eV
Two Electron Energy:          533.71751895 Eh           14523.19204 eV

Virial components:
Potential Energy   :        -2499.71402293 Eh          -68020.67667 eV
Kinetic Energy     :         1248.74471382 Eh           33980.07118 eV
Virial Ratio       :            2.00178147


DFT components:
N(Alpha)           :       19.999998455660 electrons
N(Beta)            :       13.999998530736 electrons
N(Total)           :       33.999996986396 electrons
E(X)               :      -61.252086639838 Eh       
E(C)               :       -1.358949621927 Eh       
E(XC)              :      -62.611036261765 Eh       
DFET-embed. en.    :        0.000000000000 Eh       

---------------
SCF CONVERGENCE
---------------

  Last Energy change         ...   -2.4775e-08  Tolerance :   1.0000e-08
  Last MAX-Density change    ...    1.8222e-06  Tolerance :   1.0000e-07
  Last RMS-Density change    ...    3.5290e-08  Tolerance :   5.0000e-09
  Last DIIS Error            ...    7.8125e-07  Tolerance :   5.0000e-07

             **** THE GBW FILE WAS UPDATED (26_MnF.gbw) ****
             **** DENSITY FILE WAS UPDATED (26_MnF.scfp) ****
             **** ENERGY FILE WAS UPDATED (26_MnF.en.tmp) ****
----------------------
UHF SPIN CONTAMINATION
----------------------

Warning: in a DFT calculation there is little theoretical justification to 
         calculate <S**2> as in Hartree-Fock theory. We will do it anyways
         but you should keep in mind that the values have only limited relevance

Expectation value of <S**2>     :    12.002903
Ideal value S*(S+1) for S=3.0   :    12.000000
Deviation                       :     0.002903

             **** THE GBW FILE WAS UPDATED (26_MnF.gbw) ****
             **** DENSITY FILE WAS UPDATED (26_MnF.scfp) ****
----------------
ORBITAL ENERGIES
----------------
                 SPIN UP ORBITALS
  NO   OCC          E(Eh)            E(eV) 
   0   1.0000    -234.737338     -6387.5277 
   1   1.0000     -27.033141      -735.6092 
   2   1.0000     -24.329460      -662.0383 
   3   1.0000     -23.118176      -629.0775 
   4   1.0000     -23.118176      -629.0775 
   5   1.0000     -23.114561      -628.9792 
   6   1.0000      -3.193982       -86.9127 
   7   1.0000      -2.080246       -56.6064 
   8   1.0000      -2.080246       -56.6064 
   9   1.0000      -2.068589       -56.2892 
  10   1.0000      -0.996546       -27.1174 
  11   1.0000      -0.354855        -9.6561 
  12   1.0000      -0.329541        -8.9673 
  13   1.0000      -0.329541        -8.9673 
  14   1.0000      -0.323816        -8.8115 
  15   1.0000      -0.323752        -8.8097 
  16   1.0000      -0.277118        -7.5408 
  17   1.0000      -0.271825        -7.3967 
  18   1.0000      -0.271825        -7.3967 
  19   1.0000      -0.188409        -5.1269 
  20   0.0000      -0.060916        -1.6576 
  21   0.0000      -0.060916        -1.6576 
  22   0.0000      -0.013015        -0.3541 
  23   0.0000      -0.002166        -0.0589 
  24   0.0000       0.021988         0.5983 
  25   0.0000       0.021988         0.5983 
  26   0.0000       0.040419         1.0999 
  27   0.0000       0.042052         1.1443 
  28   0.0000       0.042067         1.1447 
  29   0.0000       0.049335         1.3425 
  30   0.0000       0.049335         1.3425 
  31   0.0000       0.057527         1.5654 
  32   0.0000       0.086721         2.3598 
  33   0.0000       0.137453         3.7403 
  34   0.0000       0.137453         3.7403 
  35   0.0000       0.159508         4.3404 
  36   0.0000       0.199512         5.4290 
  37   0.0000       0.199519         5.4292 
  38   0.0000       0.214717         5.8427 
  39   0.0000       0.219309         5.9677 
  40   0.0000       0.219309         5.9677 
  41   0.0000       0.225874         6.1463 
  42   0.0000       0.225874         6.1463 
  43   0.0000       0.267193         7.2707 
  44   0.0000       0.385885        10.5005 
  45   0.0000       0.470104        12.7922 
  46   0.0000       0.578606        15.7447 
  47   0.0000       0.579056        15.7569 
  48   0.0000       0.605060        16.4645 
  49   0.0000       0.605060        16.4645 
  50   0.0000       0.619873        16.8676 
  51   0.0000       0.619873        16.8676 
  52   0.0000       0.685745        18.6601 
  53   0.0000       0.685745        18.6601 
  54   0.0000       0.693320        18.8662 
  55   0.0000       0.801971        21.8227 
  56   0.0000       0.801971        21.8227 
  57   0.0000       0.805083        21.9074 
  58   0.0000       0.837240        22.7825 
  59   0.0000       0.837383        22.7864 
  60   0.0000       0.869970        23.6731 
  61   0.0000       0.870845        23.6969 
  62   0.0000       0.936592        25.4860 
  63   0.0000       0.983508        26.7626 
  64   0.0000       0.983508        26.7626 
  65   0.0000       1.077311        29.3151 
  66   0.0000       1.277441        34.7609 
  67   0.0000       1.277441        34.7609 
  68   0.0000       1.409024        38.3415 
  69   0.0000       2.022450        55.0337 
  70   0.0000       2.024857        55.0992 
  71   0.0000       2.024857        55.0992 
  72   0.0000       2.048939        55.7545 
  73   0.0000       2.048939        55.7545 
  74   0.0000       2.074158        56.4407 
  75   0.0000       2.074951        56.4623 
  76   0.0000       2.136379        58.1338 
  77   0.0000       2.392156        65.0939 
  78   0.0000       2.397377        65.2359 
  79   0.0000       2.448552        66.6285 
  80   0.0000       2.485414        67.6316 
  81   0.0000       2.485414        67.6316 
  82   0.0000       2.514997        68.4366 
  83   0.0000       2.514997        68.4366 
  84   0.0000       2.517834        68.5137 
  85   0.0000       2.517834        68.5137 
  86   0.0000       2.542593        69.1875 
  87   0.0000       2.543395        69.2093 
  88   0.0000       2.554304        69.5061 
  89   0.0000       2.593604        70.5755 
  90   0.0000       2.600337        70.7588 
  91   0.0000       2.697787        73.4105 
  92   0.0000       2.697787        73.4105 
  93   0.0000       2.747086        74.7520 
  94   0.0000       2.828420        76.9652 
  95   0.0000       2.828420        76.9652 
  96   0.0000       2.999884        81.6310 
  97   0.0000       3.005376        81.7804 
  98   0.0000       3.080595        83.8272 
  99   0.0000       3.421501        93.1038 
 100   0.0000       3.421501        93.1038 
 101   0.0000       3.679661       100.1287 
 102   0.0000       3.679694       100.1296 
 103   0.0000       3.757891       102.2574 
 104   0.0000       3.940510       107.2267 
 105   0.0000       3.940510       107.2267 
 106   0.0000       4.563746       124.1858 
 107   0.0000       4.821221       131.1921 
 108   0.0000       4.821221       131.1921 
 109   0.0000       5.173773       140.7855 
 110   0.0000       7.210790       196.2156 
 111   0.0000       7.210790       196.2156 
 112   0.0000       7.223989       196.5747 
 113   0.0000       7.224054       196.5765 
 114   0.0000       7.261355       197.5915 
 115   0.0000       7.261355       197.5915 
 116   0.0000       7.412091       201.6932 
 117   0.0000       7.787783       211.9163 
 118   0.0000       7.787992       211.9220 
 119   0.0000       7.794243       212.0921 
 120   0.0000       7.794243       212.0921 
 121   0.0000       7.816926       212.7094 
 122   0.0000       7.819534       212.7803 
 123   0.0000       7.978361       217.1022 
 124   0.0000       7.978361       217.1022 
 125   0.0000       8.048588       219.0132 
 126   0.0000       8.375748       227.9157 
 127   0.0000       8.375748       227.9157 
 128   0.0000       8.446459       229.8398 
 129   0.0000       8.478666       230.7162 
 130   0.0000       8.687171       236.3899 
 131   0.0000       8.731402       237.5935 
 132   0.0000       8.732040       237.6109 
 133   0.0000       8.762144       238.4301 
 134   0.0000       8.762144       238.4301 
 135   0.0000       8.850858       240.8441 
 136   0.0000       8.850858       240.8441 
 137   0.0000       9.063023       246.6174 
 138   0.0000      12.978857       353.1726 

                 SPIN DOWN ORBITALS
  NO   OCC          E(Eh)            E(eV) 
   0   1.0000    -234.735379     -6387.4744 
   1   1.0000     -26.961958      -733.6722 
   2   1.0000     -24.324210      -661.8954 
   3   1.0000     -23.060055      -627.4960 
   4   1.0000     -23.060055      -627.4960 
   5   1.0000     -23.057461      -627.4254 
   6   1.0000      -3.001547       -81.6762 
   7   1.0000      -1.886671       -51.3389 
   8   1.0000      -1.886671       -51.3389 
   9   1.0000      -1.877647       -51.0934 
  10   1.0000      -0.985364       -26.8131 
  11   1.0000      -0.315826        -8.5941 
  12   1.0000      -0.284514        -7.7420 
  13   1.0000      -0.284514        -7.7420 
  14   0.0000      -0.146595        -3.9890 
  15   0.0000      -0.146558        -3.9880 
  16   0.0000      -0.142192        -3.8692 
  17   0.0000      -0.131353        -3.5743 
  18   0.0000      -0.131353        -3.5743 
  19   0.0000      -0.102722        -2.7952 
  20   0.0000      -0.011364        -0.3092 
  21   0.0000      -0.011364        -0.3092 
  22   0.0000       0.010505         0.2859 
  23   0.0000       0.019658         0.5349 
  24   0.0000       0.039554         1.0763 
  25   0.0000       0.039554         1.0763 
  26   0.0000       0.059557         1.6206 
  27   0.0000       0.069168         1.8821 
  28   0.0000       0.069194         1.8829 
  29   0.0000       0.071045         1.9332 
  30   0.0000       0.071045         1.9332 
  31   0.0000       0.077419         2.1067 
  32   0.0000       0.122795         3.3414 
  33   0.0000       0.179032         4.8717 
  34   0.0000       0.179032         4.8717 
  35   0.0000       0.192169         5.2292 
  36   0.0000       0.226253         6.1567 
  37   0.0000       0.231548         6.3007 
  38   0.0000       0.231548         6.3007 
  39   0.0000       0.242413         6.5964 
  40   0.0000       0.242610         6.6017 
  41   0.0000       0.256658         6.9840 
  42   0.0000       0.256658         6.9840 
  43   0.0000       0.297533         8.0963 
  44   0.0000       0.422298        11.4913 
  45   0.0000       0.513814        13.9816 
  46   0.0000       0.609173        16.5764 
  47   0.0000       0.609449        16.5839 
  48   0.0000       0.657990        17.9048 
  49   0.0000       0.657990        17.9048 
  50   0.0000       0.684201        18.6180 
  51   0.0000       0.684201        18.6180 
  52   0.0000       0.717226        19.5167 
  53   0.0000       0.717226        19.5167 
  54   0.0000       0.747227        20.3331 
  55   0.0000       0.845017        22.9941 
  56   0.0000       0.869060        23.6483 
  57   0.0000       0.869060        23.6483 
  58   0.0000       0.872783        23.7496 
  59   0.0000       0.874053        23.7842 
  60   0.0000       0.946812        25.7641 
  61   0.0000       0.947340        25.7784 
  62   0.0000       0.968823        26.3630 
  63   0.0000       0.997148        27.1338 
  64   0.0000       0.997148        27.1338 
  65   0.0000       1.126022        30.6406 
  66   0.0000       1.315410        35.7941 
  67   0.0000       1.315410        35.7941 
  68   0.0000       1.418278        38.5933 
  69   0.0000       2.098566        57.1049 
  70   0.0000       2.107321        57.3431 
  71   0.0000       2.107321        57.3431 
  72   0.0000       2.169268        59.0288 
  73   0.0000       2.169268        59.0288 
  74   0.0000       2.183803        59.4243 
  75   0.0000       2.189168        59.5703 
  76   0.0000       2.189610        59.5823 
  77   0.0000       2.435648        66.2774 
  78   0.0000       2.442001        66.4502 
  79   0.0000       2.538033        69.0634 
  80   0.0000       2.538033        69.0634 
  81   0.0000       2.579414        70.1894 
  82   0.0000       2.579974        70.2047 
  83   0.0000       2.579974        70.2047 
  84   0.0000       2.603576        70.8469 
  85   0.0000       2.610916        71.0466 
  86   0.0000       2.614069        71.1324 
  87   0.0000       2.629763        71.5595 
  88   0.0000       2.629886        71.5628 
  89   0.0000       2.646309        72.0097 
  90   0.0000       2.646309        72.0097 
  91   0.0000       2.729893        74.2842 
  92   0.0000       2.729893        74.2842 
  93   0.0000       2.834792        77.1386 
  94   0.0000       2.854971        77.6877 
  95   0.0000       2.854971        77.6877 
  96   0.0000       3.042730        82.7969 
  97   0.0000       3.047924        82.9382 
  98   0.0000       3.145646        85.5974 
  99   0.0000       3.493140        95.0532 
 100   0.0000       3.493140        95.0532 
 101   0.0000       3.827012       104.1383 
 102   0.0000       3.832095       104.2766 
 103   0.0000       3.832105       104.2769 
 104   0.0000       4.061722       110.5251 
 105   0.0000       4.061722       110.5251 
 106   0.0000       4.670040       127.0783 
 107   0.0000       4.832768       131.5063 
 108   0.0000       4.832768       131.5063 
 109   0.0000       5.192266       141.2888 
 110   0.0000       7.432773       202.2560 
 111   0.0000       7.432773       202.2560 
 112   0.0000       7.447989       202.6701 
 113   0.0000       7.448036       202.6714 
 114   0.0000       7.477966       203.4858 
 115   0.0000       7.477966       203.4858 
 116   0.0000       7.616185       207.2469 
 117   0.0000       7.939883       216.0552 
 118   0.0000       7.939971       216.0576 
 119   0.0000       7.946103       216.2245 
 120   0.0000       7.946103       216.2245 
 121   0.0000       7.957329       216.5299 
 122   0.0000       7.960887       216.6268 
 123   0.0000       8.112212       220.7445 
 124   0.0000       8.112212       220.7445 
 125   0.0000       8.179865       222.5854 
 126   0.0000       8.386403       228.2056 
 127   0.0000       8.386403       228.2056 
 128   0.0000       8.467663       230.4168 
 129   0.0000       8.498015       231.2428 
 130   0.0000       8.707253       236.9364 
 131   0.0000       8.744467       237.9491 
 132   0.0000       8.745075       237.9656 
 133   0.0000       8.793991       239.2967 
 134   0.0000       8.793991       239.2967 
 135   0.0000       8.865729       241.2487 
 136   0.0000       8.865729       241.2487 
 137   0.0000       9.096293       247.5227 
 138   0.0000      13.000237       353.7544 

                    ********************************
                    * MULLIKEN POPULATION ANALYSIS *
                    ********************************

--------------------------------------------
MULLIKEN ATOMIC CHARGES AND SPIN POPULATIONS
--------------------------------------------
   0 Mn:    0.630223    5.870175
   1 F :   -0.630223    0.129825
Sum of atomic charges         :    0.0000000
Sum of atomic spin populations:    6.0000000

-----------------------------------------------------
MULLIKEN REDUCED ORBITAL CHARGES AND SPIN POPULATIONS
-----------------------------------------------------
CHARGE
  0 Mns       :     6.947444  s :     6.947444
      pz      :     4.185345  p :    12.244157
      px      :     4.029406
      py      :     4.029406
      dz2     :     1.065782  d :     5.163682
      dxz     :     1.049069
      dyz     :     1.049069
      dx2y2   :     0.999880
      dxy     :     0.999882
      f0      :     0.004763  f :     0.012669
      f+1     :     0.003910
      f-1     :     0.003910
      f+2     :     0.000044
      f-2     :     0.000043
      f+3     :     0.000000
      f-3     :     0.000000
      g0      :     0.001070  g :     0.001825
      g+1     :     0.000374
      g-1     :     0.000374
      g+2     :     0.000003
      g-2     :     0.000003
      g+3     :     0.000000
      g-3     :     0.000000
      g+4     :     0.000000
      g-4     :     0.000000
  1 F s       :     3.996809  s :     3.996809
      pz      :     1.796460  p :     5.624497
      px      :     1.914018
      py      :     1.914018
      dz2     :     0.002010  d :     0.008137
      dxz     :     0.003005
      dyz     :     0.003005
      dx2y2   :     0.000059
      dxy     :     0.000058
      f0      :     0.000318  f :     0.000780
      f+1     :     0.000215
      f-1     :     0.000215
      f+2     :     0.000015
      f-2     :     0.000014
      f+3     :     0.000001
      f-3     :     0.000001

SPIN
  0 Mns       :     0.870849  s :     0.870849
      pz      :     0.158713  p :     0.181220
      px      :     0.011253
      py      :     0.011253
      dz2     :     0.911349  d :     4.816417
      dxz     :     0.952653
      dyz     :     0.952653
      dx2y2   :     0.999880
      dxy     :     0.999882
      f0      :     0.000342  f :     0.001698
      f+1     :     0.000635
      f-1     :     0.000635
      f+2     :     0.000044
      f-2     :     0.000043
      f+3     :     0.000000
      f-3     :     0.000000
      g0      :    -0.000018  g :    -0.000009
      g+1     :     0.000001
      g-1     :     0.000001
      g+2     :     0.000003
      g-2     :     0.000003
      g+3     :     0.000000
      g-3     :     0.000000
      g+4     :     0.000000
      g-4     :    -0.000000
  1 F s       :    -0.000679  s :    -0.000679
      pz      :     0.060010  p :     0.131911
      px      :     0.035950
      py      :     0.035950
      dz2     :    -0.000601  d :    -0.001468
      dxz     :    -0.000492
      dyz     :    -0.000492
      dx2y2   :     0.000059
      dxy     :     0.000058
      f0      :     0.000034  f :     0.000060
      f+1     :    -0.000001
      f-1     :    -0.000001
      f+2     :     0.000015
      f-2     :     0.000014
      f+3     :     0.000000
      f-3     :     0.000000


                     *******************************
                     * LOEWDIN POPULATION ANALYSIS *
                     *******************************

-------------------------------------------
LOEWDIN ATOMIC CHARGES AND SPIN POPULATIONS
-------------------------------------------
   0 Mn:    0.452127    5.763499
   1 F :   -0.452127    0.236501

----------------------------------------------------
LOEWDIN REDUCED ORBITAL CHARGES AND SPIN POPULATIONS
----------------------------------------------------
CHARGE
  0 Mns       :     6.789688  s :     6.789688
      pz      :     4.277550  p :    12.357309
      px      :     4.039880
      py      :     4.039880
      dz2     :     1.127598  d :     5.245752
      dxz     :     1.060080
      dyz     :     1.060080
      dx2y2   :     0.998995
      dxy     :     0.998998
      f0      :     0.068600  f :     0.143057
      f+1     :     0.037147
      f-1     :     0.037147
      f+2     :     0.000082
      f-2     :     0.000081
      f+3     :     0.000000
      f-3     :     0.000000
      g0      :     0.006677  g :     0.012066
      g+1     :     0.002686
      g-1     :     0.002686
      g+2     :     0.000009
      g-2     :     0.000009
      g+3     :     0.000000
      g-3     :     0.000000
      g+4     :     0.000000
      g-4     :     0.000000
  1 F s       :     3.792532  s :     3.792532
      pz      :     1.870532  p :     5.546919
      px      :     1.838194
      py      :     1.838194
      dz2     :     0.059885  d :     0.099175
      dxz     :     0.018946
      dyz     :     0.018946
      dx2y2   :     0.000700
      dxy     :     0.000699
      f0      :     0.006938  f :     0.013502
      f+1     :     0.003066
      f-1     :     0.003066
      f+2     :     0.000215
      f-2     :     0.000214
      f+3     :     0.000001
      f-3     :     0.000001

SPIN
  0 Mns       :     0.765483  s :     0.765483
      pz      :     0.208377  p :     0.238273
      px      :     0.014948
      py      :     0.014948
      dz2     :     0.887864  d :     4.747725
      dxz     :     0.930934
      dyz     :     0.930934
      dx2y2   :     0.998995
      dxy     :     0.998998
      f0      :     0.003552  f :     0.010598
      f+1     :     0.003441
      f-1     :     0.003441
      f+2     :     0.000082
      f-2     :     0.000081
      f+3     :     0.000000
      f-3     :     0.000000
      g0      :     0.000651  g :     0.001420
      g+1     :     0.000376
      g-1     :     0.000376
      g+2     :     0.000009
      g-2     :     0.000009
      g+3     :     0.000000
      g-3     :     0.000000
      g+4     :     0.000000
      g-4     :    -0.000000
  1 F s       :     0.026359  s :     0.026359
      pz      :     0.098463  p :     0.169415
      px      :     0.035476
      py      :     0.035476
      dz2     :     0.006953  d :     0.032980
      dxz     :     0.012314
      dyz     :     0.012314
      dx2y2   :     0.000700
      dxy     :     0.000699
      f0      :     0.002297  f :     0.007747
      f+1     :     0.002511
      f-1     :     0.002511
      f+2     :     0.000215
      f-2     :     0.000214
      f+3     :     0.000000
      f-3     :     0.000000


                      *****************************
                      * MAYER POPULATION ANALYSIS *
                      *****************************

  NA   - Mulliken gross atomic population
  ZA   - Total nuclear charge
  QA   - Mulliken gross atomic charge
  VA   - Mayer's total valence
  BVA  - Mayer's bonded valence
  FA   - Mayer's free valence

  ATOM       NA         ZA         QA         VA         BVA        FA
  0 Mn    24.3698    25.0000     0.6302     6.3670     0.6673     5.6996
  1 F      9.6302     9.0000    -0.6302     0.6758     0.6673     0.0085

  Mayer bond orders larger than 0.100000
B(  0-Mn,  1-F ) :   0.6673 

-------
TIMINGS
-------

Total SCF time: 0 days 0 hours 0 min 3 sec 

Total time                  ....       3.409 sec
Sum of individual times     ....       3.263 sec  ( 95.7%)

Fock matrix formation       ....       2.843 sec  ( 83.4%)
  Split-RI-J                ....       2.380 sec  ( 83.7% of F)
  XC integration            ....       0.318 sec  ( 11.2% of F)
    Basis function eval.    ....       0.036 sec  ( 11.4% of XC)
    Density eval.           ....       0.048 sec  ( 15.1% of XC)
    XC-Functional eval.     ....       0.011 sec  (  3.3% of XC)
    XC-Potential eval.      ....       0.124 sec  ( 39.0% of XC)
Diagonalization             ....       0.090 sec  (  2.6%)
Density matrix formation    ....       0.012 sec  (  0.4%)
Population analysis         ....       0.007 sec  (  0.2%)
Initial guess               ....       0.124 sec  (  3.7%)
Orbital Transformation      ....       0.000 sec  (  0.0%)
Orbital Orthonormalization  ....       0.000 sec  (  0.0%)
DIIS solution               ....       0.033 sec  (  1.0%)
Grid generation             ....       0.155 sec  (  4.5%)


-------------------------------------------------------------------------------
                          DFT DISPERSION CORRECTION                            
                                                                               
                              DFTD3 V3.1  Rev 1                                
                          USING Becke-Johnson damping                          
-------------------------------------------------------------------------------
The TPSS functional is recognized
Active option DFTDOPT                   ...         4   

molecular C6(AA) [au] = 428.650886 


            DFT-D V3
 parameters
 s6 scaling factor         :     1.0000 
 a1 scaling factor         :     0.4535 
 s8 scaling factor         :     1.9435 
 a2 scaling factor         :     4.4752 
 ad hoc parameters k1-k3   :    16.0000     1.3333    -4.0000 

 Edisp/kcal,au: -0.368273217727  -0.000586880667 
 E6   /kcal   :  -0.147578357 
 E8   /kcal   :  -0.220694860 
 % E8         :  59.926937315 

-------------------------   ----------------
Dispersion correction           -0.000586881
-------------------------   ----------------


-------------------------   --------------------
FINAL SINGLE POINT ENERGY     -1250.969895982543
-------------------------   --------------------



           ************************************************************
           *        Program running with 24 parallel MPI-processes    *
           *              working on a common directory               *
           ************************************************************
------------------------------------------------------------------------------
                         ORCA SCF GRADIENT CALCULATION
------------------------------------------------------------------------------

Gradient of the Kohn-Sham DFT energy:
Kohn-Sham wavefunction type      ... UKS
Hartree-Fock exchange scaling    ...    0.000
Number of operators              ...    2
Number of atoms                  ...    2
Basis set dimensions             ...  139
Integral neglect threshold       ... 2.5e-11
Integral primitive cutoff        ... 2.5e-12

Nuclear repulsion gradient       ... done
One Electron Gradient            ... done
Pre-screening matrix             ... done
RI-J gradient                    ... done
Exchange-correlation gradient    ... done
Dispersion correction            ... done

------------------
CARTESIAN GRADIENT
------------------

   1   Mn  :    0.000000002    0.000000001   -0.042565735
   2   F   :   -0.000000001    0.000000001    0.041685288

Difference to translation invariance:
           :    0.0000000011    0.0000000021   -0.0008804465

Norm of the cartesian gradient     ...    0.0595777227
RMS gradient                       ...    0.0243225034
MAX gradient                       ...    0.0425657348

-------
TIMINGS
-------

Total SCF gradient time            ...        4.236 sec

One electron gradient       ....       0.053 sec  (  1.3%)
Prescreening matrices       ....       3.383 sec  ( 79.9%)
RI-J Coulomb gradient       ....       0.233 sec  (  5.5%)
XC gradient                 ....       0.042 sec  (  1.0%)
------------------------------------------------------------------------------
                         ORCA GEOMETRY RELAXATION STEP
------------------------------------------------------------------------------

Reading the OPT-File                    .... done
Getting information on internals        .... done
Copying old internal coords+grads       .... done
Making the new internal coordinates     .... (new redundants).... done
Validating the new internal coordinates .... (new redundants).... done
Calculating the B-matrix                .... done
Calculating the G,G- and P matrices     .... done
Transforming gradient to internals      .... done
Projecting the internal gradient        .... done
Number of atoms                         ....   2
Number of internal coordinates          ....   1
Current Energy                          .... -1250.969895983 Eh
Current gradient norm                   ....     0.059577723 Eh/bohr
Maximum allowed component of the step   ....  0.300
Current trust radius                    ....  0.300
Evaluating the initial hessian          ....  (Almloef) done
Projecting the Hessian                  .... done
Forming the augmented Hessian           .... done
Diagonalizing the augmented Hessian     .... done
Last element of RFO vector              ....  0.997209975
Lowest eigenvalues of augmented Hessian:
 -0.003153367
Length of the computed step             ....  0.074856465
The final length of the internal step   ....  0.074856465
Converting the step to cartesian space:
 Initial RMS(Int)=    0.0748564649
Transforming coordinates:
 Iter   0:  RMS(Cart)=    0.0216092001 RMS(Int)=    0.0748564649
 Iter   1:  RMS(Cart)=    0.0000000000 RMS(Int)=    0.0000000000
done
Storing new coordinates                 .... done

                                .--------------------.
          ----------------------|Geometry convergence|-------------------------
          Item                value                   Tolerance       Converged
          ---------------------------------------------------------------------
          RMS gradient        0.0421255115            0.0001000000      NO
          MAX gradient        0.0421255115            0.0003000000      NO
          RMS step            0.0748564649            0.0020000000      NO
          MAX step            0.0748564649            0.0040000000      NO
          ........................................................
          Max(Bonds)      0.0396      Max(Angles)    0.00
          Max(Dihed)        0.00      Max(Improp)    0.00
          ---------------------------------------------------------------------

The optimization has not yet converged - more geometry cycles are needed


    ---------------------------------------------------------------------------
                         Redundant Internal Coordinates
                            (Angstroem and degrees)

        Definition                    Value    dE/dq     Step     New-Value
    ----------------------------------------------------------------------------
     1. B(F   1,Mn  0)                2.0000  0.042126 -0.0396    1.9604   
    ----------------------------------------------------------------------------

         *************************************************************
         *                GEOMETRY OPTIMIZATION CYCLE   2            *
         *************************************************************
---------------------------------
CARTESIAN COORDINATES (ANGSTROEM)
---------------------------------
  Mn     0.000000    0.000000    0.019806
  F      0.000000    0.000000    1.980194

----------------------------
CARTESIAN COORDINATES (A.U.)
----------------------------
  NO LB      ZA    FRAG     MASS         X           Y           Z
   0 Mn   25.0000    0    54.940    0.000000    0.000000    0.037428
   1 F     9.0000    0    18.998    0.000000    0.000000    3.742024

--------------------------------
INTERNAL COORDINATES (ANGSTROEM)
--------------------------------
 Mn     0   0   0     0.000000000000     0.00000000     0.00000000
 F      1   0   0     1.960387664870     0.00000000     0.00000000

---------------------------
INTERNAL COORDINATES (A.U.)
---------------------------
 Mn     0   0   0     0.000000000000     0.00000000     0.00000000
 F      1   0   0     3.704595802922     0.00000000     0.00000000



           ************************************************************
           *        Program running with 24 parallel MPI-processes    *
           *              working on a common directory               *
           ************************************************************
 One Electron integrals                  ... done
 Pre-screening matrix                    ... done


           ************************************************************
           *        Program running with 24 parallel MPI-processes    *
           *              working on a common directory               *
           ************************************************************

Diagonalization of the overlap matrix:
Smallest eigenvalue                        ... 6.320e-05
Time for diagonalization                   ...    0.005 sec
Threshold for overlap eigenvalues          ... 1.000e-08
Number of eigenvalues below threshold      ... 0
Time for construction of square roots      ...    0.002 sec
Total time needed                          ...    0.007 sec

-------------------
DFT GRID GENERATION
-------------------

General Integration Accuracy     IntAcc      ...  4.340
Radial Grid Type                 RadialGrid  ... Gauss-Chebyshev
Angular Grid (max. acc.)         AngularGrid ... Lebedev-110
Angular grid pruning method      GridPruning ... 3 (G Style)
Weight generation scheme         WeightScheme... Becke
Basis function cutoff            BFCut       ...    1.0000e-11
Integration weight cutoff        WCut        ...    1.0000e-14
Grids for H and He will be reduced by one unit

# of grid points (after initial pruning)     ...   4652 (   0.0 sec)
# of grid points (after weights+screening)   ...   4627 (   0.0 sec)
nearest neighbour list constructed           ...    0.0 sec
Grid point re-assignment to atoms done       ...    0.0 sec
Grid point division into batches done        ...    0.0 sec
Reduced shell lists constructed in    0.0 sec

Total number of grid points                  ...     4627
Total number of batches                      ...       73
Average number of points per batch           ...       63
Average number of grid points per atom       ...     2314
Average number of shells per batch           ...    21.20 (54.36%)
Average number of basis functions per batch  ...    62.80 (45.18%)
Average number of large shells per batch     ...    15.20 (71.70%)
Average number of large basis fcns per batch ...    44.00 (70.06%)
Maximum spatial batch extension              ...  19.25, 28.73, 16.15 au
Average spatial batch extension              ...   1.01,  1.32,  0.89 au

Time for grid setup =    0.019 sec

--------------
SCF ITERATIONS
--------------
ITER       Energy         Delta-E        Max-DP      RMS-DP      [F,P]     Damp
               ***  Starting incremental Fock matrix formation  ***
  0  -1250.9740166223   0.000000000000 0.00185618  0.00003074  0.0058763 0.7000
  1  -1250.9740505533  -0.000033931016 0.00190356  0.00002960  0.0025659 0.7000
                               ***Turning on DIIS***
  2  -1250.9740733578  -0.000022804483 0.00533537  0.00008447  0.0018454 0.0000
  3  -1250.9741300923  -0.000056734540 0.00194133  0.00002473  0.0006432 0.0000
  4  -1250.9741316302  -0.000001537921 0.00065986  0.00001252  0.0003713 0.0000
  5  -1250.9741311090   0.000000521182 0.00042261  0.00000763  0.0007934 0.0000
  6  -1250.9741319488  -0.000000839774 0.00046952  0.00000680  0.0000531 0.0000
  7  -1250.9741320036  -0.000000054739 0.00006382  0.00000119  0.0000437 0.0000
  8  -1250.9741319710   0.000000032511 0.00001912  0.00000030  0.0000127 0.0000
                            ***DIIS convergence achieved***

               *****************************************************
               *                     SUCCESS                       *
               *           SCF CONVERGED AFTER   9 CYCLES          *
               *****************************************************

Setting up the final grid:

General Integration Accuracy     IntAcc      ...  4.670
Radial Grid Type                 RadialGrid  ... Gauss-Chebyshev
Angular Grid (max. acc.)         AngularGrid ... Lebedev-302
Angular grid pruning method      GridPruning ... 3 (G Style)
Weight generation scheme         WeightScheme... Becke
Basis function cutoff            BFCut       ...    1.0000e-11
Integration weight cutoff        WCut        ...    1.0000e-14
Grids for H and He will be reduced by one unit

# of grid points (after initial pruning)     ...  15936 (   0.0 sec)
# of grid points (after weights+screening)   ...  15893 (   0.0 sec)
nearest neighbour list constructed           ...    0.0 sec
Grid point re-assignment to atoms done       ...    0.0 sec
Grid point division into batches done        ...    0.1 sec
Reduced shell lists constructed in    0.1 sec

Total number of grid points                  ...    15893
Total number of batches                      ...      249
Average number of points per batch           ...       63
Average number of grid points per atom       ...     7946
Average number of shells per batch           ...    16.83 (43.16%)
Average number of basis functions per batch  ...    41.50 (29.86%)
Average number of large shells per batch     ...     9.58 (56.93%)
Average number of large basis fcns per batch ...    23.25 (56.02%)
Maximum spatial batch extension              ...  28.57, 31.41, 16.71 au
Average spatial batch extension              ...   0.89,  0.95,  0.66 au

Final grid set up in    0.1 sec
Final integration                            ... done (   0.0 sec)
Change in XC energy                          ...     0.001947099
Integrated number of electrons               ...    33.999998453
Previous integrated no of electrons          ...    33.999759297
Total Energy       :        -1250.97218490 Eh          -34040.68375 eV
  Last Energy change         ...   -2.5462e-08  Tolerance :   1.0000e-08
  Last MAX-Density change    ...    1.0056e-05  Tolerance :   1.0000e-07
             **** THE GBW FILE WAS UPDATED (26_MnF.gbw) ****
             **** DENSITY FILE WAS UPDATED (26_MnF.scfp) ****
             **** ENERGY FILE WAS UPDATED (26_MnF.en.tmp) ****
----------------------
UHF SPIN CONTAMINATION
----------------------

Warning: in a DFT calculation there is little theoretical justification to 
         calculate <S**2> as in Hartree-Fock theory. We will do it anyways
         but you should keep in mind that the values have only limited relevance

Expectation value of <S**2>     :    12.002879
Ideal value S*(S+1) for S=3.0   :    12.000000
Deviation                       :     0.002879

             **** THE GBW FILE WAS UPDATED (26_MnF.gbw) ****
             **** DENSITY FILE WAS UPDATED (26_MnF.scfp) ****
Total SCF time: 0 days 0 hours 0 min 2 sec 


-------------------------------------------------------------------------------
                          DFT DISPERSION CORRECTION                            
                                                                               
                              DFTD3 V3.1  Rev 1                                
                          USING Becke-Johnson damping                          
-------------------------------------------------------------------------------
-------------------------   ----------------
Dispersion correction           -0.000570191
-------------------------   ----------------


-------------------------   --------------------
FINAL SINGLE POINT ENERGY     -1250.972755087716
-------------------------   --------------------



           ************************************************************
           *        Program running with 24 parallel MPI-processes    *
           *              working on a common directory               *
           ************************************************************
------------------------------------------------------------------------------
                         ORCA SCF GRADIENT CALCULATION
------------------------------------------------------------------------------

Gradient of the Kohn-Sham DFT energy:
Kohn-Sham wavefunction type      ... UKS
Hartree-Fock exchange scaling    ...    0.000
Number of operators              ...    2
Number of atoms                  ...    2
Basis set dimensions             ...  139
Integral neglect threshold       ... 2.5e-11
Integral primitive cutoff        ... 2.5e-12

Nuclear repulsion gradient       ... done
One Electron Gradient            ... done
Pre-screening matrix             ... done
RI-J gradient                    ... done
Exchange-correlation gradient    ... done
Dispersion correction            ... done

------------------
CARTESIAN GRADIENT
------------------

   1   Mn  :   -0.000000000   -0.000000001   -0.036284419
   2   F   :    0.000000001   -0.000000000    0.035431241

Difference to translation invariance:
           :    0.0000000011   -0.0000000015   -0.0008531771

Norm of the cartesian gradient     ...    0.0507142179
RMS gradient                       ...    0.0207039928
MAX gradient                       ...    0.0362844185

-------
TIMINGS
-------

Total SCF gradient time            ...        4.245 sec

One electron gradient       ....       0.063 sec  (  1.5%)
Prescreening matrices       ....       3.386 sec  ( 79.8%)
RI-J Coulomb gradient       ....       0.236 sec  (  5.6%)
XC gradient                 ....       0.041 sec  (  1.0%)
------------------------------------------------------------------------------
                         ORCA GEOMETRY RELAXATION STEP
------------------------------------------------------------------------------

Reading the OPT-File                    .... done
Getting information on internals        .... done
Copying old internal coords+grads       .... done
Making the new internal coordinates     .... (new redundants).... done
Validating the new internal coordinates .... (new redundants).... done
Calculating the B-matrix                .... done
Calculating the G,G- and P matrices     .... done
Transforming gradient to internals      .... done
Projecting the internal gradient        .... done
Number of atoms                         ....   2
Number of internal coordinates          ....   1
Current Energy                          .... -1250.972755088 Eh
Current gradient norm                   ....     0.050714218 Eh/bohr
Maximum allowed component of the step   ....  0.300
Current trust radius                    ....  0.300
Updating the Hessian (BFGS)             .... done
Forming the augmented Hessian           .... done
Diagonalizing the augmented Hessian     .... done
Last element of RFO vector              ....  0.937947527
Lowest eigenvalues of augmented Hessian:
 -0.013257328
Length of the computed step             ....  0.369719207
Warning: the length of the step is outside the trust region - taking restricted step instead
The input lambda is                     ....    -0.013257
   iter:   1  x=   -0.029822  g=    2.818786 f(x)=     0.046692
   iter:   2  x=   -0.035356  g=    1.756391 f(x)=     0.009720
   iter:   3  x=   -0.035794  g=    1.522722 f(x)=     0.000667
   iter:   4  x=   -0.035797  g=    1.506039 f(x)=     0.000004
   iter:   5  x=   -0.035797  g=    1.505947 f(x)=     0.000000
   iter:   6  x=   -0.035797  g=    1.505947 f(x)=     0.000000
The output lambda is                    ....    -0.035797 (6 iterations)
The final length of the internal step   ....  0.300000000
Converting the step to cartesian space:
 Initial RMS(Int)=    0.3000000000
Transforming coordinates:
 Iter   0:  RMS(Cart)=    0.0866025404 RMS(Int)=    0.3000000000
 Iter   1:  RMS(Cart)=    0.0000000000 RMS(Int)=    0.0000000000
done
Storing new coordinates                 .... done

                                .--------------------.
          ----------------------|Geometry convergence|-------------------------
          Item                value                   Tolerance       Converged
          ---------------------------------------------------------------------
          Energy change      -0.0028591052            0.0000050000      NO
          RMS gradient        0.0358578300            0.0001000000      NO
          MAX gradient        0.0358578300            0.0003000000      NO
          RMS step            0.3000000000            0.0020000000      NO
          MAX step            0.3000000000            0.0040000000      NO
          ........................................................
          Max(Bonds)      0.1588      Max(Angles)    0.00
          Max(Dihed)        0.00      Max(Improp)    0.00
          ---------------------------------------------------------------------

The optimization has not yet converged - more geometry cycles are needed


    ---------------------------------------------------------------------------
                         Redundant Internal Coordinates
                            (Angstroem and degrees)

        Definition                    Value    dE/dq     Step     New-Value
    ----------------------------------------------------------------------------
     1. B(F   1,Mn  0)                1.9604  0.035858 -0.1588    1.8016   
    ----------------------------------------------------------------------------

         *************************************************************
         *                GEOMETRY OPTIMIZATION CYCLE   3            *
         *************************************************************
---------------------------------
CARTESIAN COORDINATES (ANGSTROEM)
---------------------------------
  Mn     0.000000    0.000000    0.099183
  F      0.000000    0.000000    1.900817

----------------------------
CARTESIAN COORDINATES (A.U.)
----------------------------
  NO LB      ZA    FRAG     MASS         X           Y           Z
   0 Mn   25.0000    0    54.940    0.000000    0.000000    0.187428
   1 F     9.0000    0    18.998    0.000000    0.000000    3.592024

--------------------------------
INTERNAL COORDINATES (ANGSTROEM)
--------------------------------
 Mn     0   0   0     0.000000000000     0.00000000     0.00000000
 F      1   0   0     1.801634502380     0.00000000     0.00000000

---------------------------
INTERNAL COORDINATES (A.U.)
---------------------------
 Mn     0   0   0     0.000000000000     0.00000000     0.00000000
 F      1   0   0     3.404595802922     0.00000000     0.00000000



           ************************************************************
           *        Program running with 24 parallel MPI-processes    *
           *              working on a common directory               *
           ************************************************************
 One Electron integrals                  ... done
 Pre-screening matrix                    ... done


           ************************************************************
           *        Program running with 24 parallel MPI-processes    *
           *              working on a common directory               *
           ************************************************************

Diagonalization of the overlap matrix:
Smallest eigenvalue                        ... 4.966e-05
Time for diagonalization                   ...    0.004 sec
Threshold for overlap eigenvalues          ... 1.000e-08
Number of eigenvalues below threshold      ... 0
Time for construction of square roots      ...    0.003 sec
Total time needed                          ...    0.007 sec

-------------------
DFT GRID GENERATION
-------------------

General Integration Accuracy     IntAcc      ...  4.340
Radial Grid Type                 RadialGrid  ... Gauss-Chebyshev
Angular Grid (max. acc.)         AngularGrid ... Lebedev-110
Angular grid pruning method      GridPruning ... 3 (G Style)
Weight generation scheme         WeightScheme... Becke
Basis function cutoff            BFCut       ...    1.0000e-11
Integration weight cutoff        WCut        ...    1.0000e-14
Grids for H and He will be reduced by one unit

# of grid points (after initial pruning)     ...   4652 (   0.0 sec)
# of grid points (after weights+screening)   ...   4627 (   0.0 sec)
nearest neighbour list constructed           ...    0.0 sec
Grid point re-assignment to atoms done       ...    0.0 sec
Grid point division into batches done        ...    0.0 sec
Reduced shell lists constructed in    0.0 sec

Total number of grid points                  ...     4627
Total number of batches                      ...       73
Average number of points per batch           ...       63
Average number of grid points per atom       ...     2314
Average number of shells per batch           ...    21.60 (55.38%)
Average number of basis functions per batch  ...    66.40 (47.77%)
Average number of large shells per batch     ...    16.40 (75.93%)
Average number of large basis fcns per batch ...    49.60 (74.70%)
Maximum spatial batch extension              ...  19.55, 28.73, 15.95 au
Average spatial batch extension              ...   1.01,  1.33,  0.87 au

Time for grid setup =    0.020 sec

--------------
SCF ITERATIONS
--------------
ITER       Energy         Delta-E        Max-DP      RMS-DP      [F,P]     Damp
               ***  Starting incremental Fock matrix formation  ***
  0  -1250.9763028997   0.000000000000 0.00938891  0.00016812  0.0240431 0.7000
  1  -1250.9770331218  -0.000730222103 0.00989084  0.00015249  0.0128935 0.7000
                               ***Turning on DIIS***
  2  -1250.9775567260  -0.000523604128 0.02837934  0.00042799  0.0095253 0.0000
  3  -1250.9788306072  -0.001273881296 0.00845512  0.00008666  0.0033245 0.0000
  4  -1250.9788558178  -0.000025210508 0.00314228  0.00004967  0.0007184 0.0000
  5  -1250.9788635379  -0.000007720161 0.00155335  0.00002569  0.0004481 0.0000
  6  -1250.9788635807  -0.000000042826 0.00046908  0.00001029  0.0004959 0.0000
  7  -1250.9788639726  -0.000000391883 0.00005105  0.00000134  0.0001194 0.0000
  8  -1250.9788640691  -0.000000096516 0.00006026  0.00000086  0.0001030 0.0000
  9  -1250.9788640743  -0.000000005130 0.00000628  0.00000012  0.0000076 0.0000
 10  -1250.9788641007  -0.000000026408 0.00000148  0.00000003  0.0000022 0.0000
                            ***DIIS convergence achieved***

               *****************************************************
               *                     SUCCESS                       *
               *           SCF CONVERGED AFTER  11 CYCLES          *
               *****************************************************

Setting up the final grid:

General Integration Accuracy     IntAcc      ...  4.670
Radial Grid Type                 RadialGrid  ... Gauss-Chebyshev
Angular Grid (max. acc.)         AngularGrid ... Lebedev-302
Angular grid pruning method      GridPruning ... 3 (G Style)
Weight generation scheme         WeightScheme... Becke
Basis function cutoff            BFCut       ...    1.0000e-11
Integration weight cutoff        WCut        ...    1.0000e-14
Grids for H and He will be reduced by one unit

# of grid points (after initial pruning)     ...  15936 (   0.0 sec)
# of grid points (after weights+screening)   ...  15887 (   0.0 sec)
nearest neighbour list constructed           ...    0.0 sec
Grid point re-assignment to atoms done       ...    0.0 sec
Grid point division into batches done        ...    0.1 sec
Reduced shell lists constructed in    0.1 sec

Total number of grid points                  ...    15887
Total number of batches                      ...      250
Average number of points per batch           ...       63
Average number of grid points per atom       ...     7944
Average number of shells per batch           ...    16.83 (43.16%)
Average number of basis functions per batch  ...    41.50 (29.86%)
Average number of large shells per batch     ...     9.75 (57.92%)
Average number of large basis fcns per batch ...    23.75 (57.23%)
Maximum spatial batch extension              ...  28.57, 31.41, 18.53 au
Average spatial batch extension              ...   0.88,  0.94,  0.67 au

Final grid set up in    0.1 sec
Final integration                            ... done (   0.1 sec)
Change in XC energy                          ...     0.002129324
Integrated number of electrons               ...    34.000025628
Previous integrated no of electrons          ...    34.000384029
Total Energy       :        -1250.97673476 Eh          -34040.80755 eV
  Last Energy change         ...    1.3051e-08  Tolerance :   1.0000e-08
  Last MAX-Density change    ...    5.1040e-07  Tolerance :   1.0000e-07
             **** THE GBW FILE WAS UPDATED (26_MnF.gbw) ****
             **** DENSITY FILE WAS UPDATED (26_MnF.scfp) ****
             **** ENERGY FILE WAS UPDATED (26_MnF.en.tmp) ****
----------------------
UHF SPIN CONTAMINATION
----------------------

Warning: in a DFT calculation there is little theoretical justification to 
         calculate <S**2> as in Hartree-Fock theory. We will do it anyways
         but you should keep in mind that the values have only limited relevance

Expectation value of <S**2>     :    12.002840
Ideal value S*(S+1) for S=3.0   :    12.000000
Deviation                       :     0.002840

             **** THE GBW FILE WAS UPDATED (26_MnF.gbw) ****
             **** DENSITY FILE WAS UPDATED (26_MnF.scfp) ****
Total SCF time: 0 days 0 hours 0 min 2 sec 


-------------------------------------------------------------------------------
                          DFT DISPERSION CORRECTION                            
                                                                               
                              DFTD3 V3.1  Rev 1                                
                          USING Becke-Johnson damping                          
-------------------------------------------------------------------------------
-------------------------   ----------------
Dispersion correction           -0.000547893
-------------------------   ----------------


-------------------------   --------------------
FINAL SINGLE POINT ENERGY     -1250.977282656748
-------------------------   --------------------



           ************************************************************
           *        Program running with 24 parallel MPI-processes    *
           *              working on a common directory               *
           ************************************************************
------------------------------------------------------------------------------
                         ORCA SCF GRADIENT CALCULATION
------------------------------------------------------------------------------

Gradient of the Kohn-Sham DFT energy:
Kohn-Sham wavefunction type      ... UKS
Hartree-Fock exchange scaling    ...    0.000
Number of operators              ...    2
Number of atoms                  ...    2
Basis set dimensions             ...  139
Integral neglect threshold       ... 2.5e-11
Integral primitive cutoff        ... 2.5e-12

Nuclear repulsion gradient       ... done
One Electron Gradient            ... done
Pre-screening matrix             ... done
RI-J gradient                    ... done
Exchange-correlation gradient    ... done
Dispersion correction            ... done

------------------
CARTESIAN GRADIENT
------------------

   1   Mn  :    0.000000002   -0.000000000    0.010433821
   2   F   :    0.000000001   -0.000000001   -0.011450212

Difference to translation invariance:
           :    0.0000000029   -0.0000000011   -0.0010163902

Norm of the cartesian gradient     ...    0.0154910287
RMS gradient                       ...    0.0063241860
MAX gradient                       ...    0.0114502115

-------
TIMINGS
-------

Total SCF gradient time            ...        4.224 sec

One electron gradient       ....       0.061 sec  (  1.5%)
Prescreening matrices       ....       3.382 sec  ( 80.1%)
RI-J Coulomb gradient       ....       0.228 sec  (  5.4%)
XC gradient                 ....       0.047 sec  (  1.1%)
------------------------------------------------------------------------------
                         ORCA GEOMETRY RELAXATION STEP
------------------------------------------------------------------------------

Reading the OPT-File                    .... done
[...]
 105   0.0000       4.009327       109.0993 
 106   0.0000       4.537375       123.4682 
 107   0.0000       4.817145       131.0812 
 108   0.0000       4.817145       131.0812 
 109   0.0000       5.343875       145.4142 
 110   0.0000       7.224746       196.5953 
 111   0.0000       7.224746       196.5953 
 112   0.0000       7.238985       196.9828 
 113   0.0000       7.239157       196.9875 
 114   0.0000       7.321243       199.2211 
 115   0.0000       7.321243       199.2211 
 116   0.0000       7.501963       204.1388 
 117   0.0000       7.800675       212.2672 
 118   0.0000       7.800993       212.2758 
 119   0.0000       7.807229       212.4455 
 120   0.0000       7.807229       212.4455 
 121   0.0000       7.865639       214.0349 
 122   0.0000       7.869867       214.1500 
 123   0.0000       8.077099       219.7890 
 124   0.0000       8.077099       219.7890 
 125   0.0000       8.124822       221.0876 
 126   0.0000       8.358605       227.4492 
 127   0.0000       8.358605       227.4492 
 128   0.0000       8.456122       230.1028 
 129   0.0000       8.513613       231.6672 
 130   0.0000       8.711083       237.0406 
 131   0.0000       8.715197       237.1526 
 132   0.0000       8.772169       238.7029 
 133   0.0000       8.797812       239.4006 
 134   0.0000       8.797812       239.4006 
 135   0.0000       8.880241       241.6436 
 136   0.0000       8.880241       241.6436 
 137   0.0000       9.162714       249.3301 
 138   0.0000      13.989675       380.6784 

                 SPIN DOWN ORBITALS
  NO   OCC          E(Eh)            E(eV) 
   0   1.0000    -234.718132     -6387.0051 
   1   1.0000     -26.946922      -733.2630 
   2   1.0000     -24.345047      -662.4624 
   3   1.0000     -23.044985      -627.0859 
   4   1.0000     -23.044985      -627.0859 
   5   1.0000     -23.041961      -627.0036 
   6   1.0000      -2.989026       -81.3355 
   7   1.0000      -1.874286       -51.0019 
   8   1.0000      -1.874286       -51.0019 
   9   1.0000      -1.866587       -50.7924 
  10   1.0000      -1.016506       -27.6605 
  11   1.0000      -0.346067        -9.4170 
  12   1.0000      -0.315042        -8.5727 
  13   1.0000      -0.315042        -8.5727 
  14   0.0000      -0.134975        -3.6729 
  15   0.0000      -0.134919        -3.6713 
  16   0.0000      -0.130759        -3.5581 
  17   0.0000      -0.115076        -3.1314 
  18   0.0000      -0.115076        -3.1314 
  19   0.0000      -0.078838        -2.1453 
  20   0.0000      -0.002218        -0.0603 
  21   0.0000      -0.002218        -0.0603 
  22   0.0000       0.012157         0.3308 
  23   0.0000       0.023968         0.6522 
  24   0.0000       0.043606         1.1866 
  25   0.0000       0.043606         1.1866 
  26   0.0000       0.066445         1.8081 
  27   0.0000       0.072168         1.9638 
  28   0.0000       0.072227         1.9654 
  29   0.0000       0.073565         2.0018 
  30   0.0000       0.073565         2.0018 
  31   0.0000       0.078486         2.1357 
  32   0.0000       0.132017         3.5924 
  33   0.0000       0.185219         5.0401 
  34   0.0000       0.185219         5.0401 
  35   0.0000       0.202173         5.5014 
  36   0.0000       0.229826         6.2539 
  37   0.0000       0.229826         6.2539 
  38   0.0000       0.234337         6.3766 
  39   0.0000       0.250789         6.8243 
  40   0.0000       0.250894         6.8272 
  41   0.0000       0.271227         7.3805 
  42   0.0000       0.271227         7.3805 
  43   0.0000       0.305106         8.3023 
  44   0.0000       0.447299        12.1716 
  45   0.0000       0.546005        14.8576 
  46   0.0000       0.612279        16.6610 
  47   0.0000       0.612581        16.6692 
  48   0.0000       0.668919        18.2022 
  49   0.0000       0.668919        18.2022 
  50   0.0000       0.691760        18.8238 
  51   0.0000       0.691760        18.8238 
  52   0.0000       0.751121        20.4390 
  53   0.0000       0.751121        20.4390 
  54   0.0000       0.785962        21.3871 
  55   0.0000       0.866709        23.5843 
  56   0.0000       0.867897        23.6167 
  57   0.0000       0.867897        23.6167 
  58   0.0000       0.886637        24.1266 
  59   0.0000       0.887741        24.1567 
  60   0.0000       0.963514        26.2185 
  61   0.0000       0.963670        26.2228 
  62   0.0000       0.969845        26.3908 
  63   0.0000       0.988252        26.8917 
  64   0.0000       0.988252        26.8917 
  65   0.0000       1.254713        34.1425 
  66   0.0000       1.326171        36.0870 
  67   0.0000       1.396803        38.0089 
  68   0.0000       1.396803        38.0089 
  69   0.0000       2.079450        56.5847 
  70   0.0000       2.079450        56.5847 
  71   0.0000       2.168922        59.0194 
  72   0.0000       2.170594        59.0649 
  73   0.0000       2.172156        59.1074 
  74   0.0000       2.181417        59.3594 
  75   0.0000       2.181417        59.3594 
  76   0.0000       2.250230        61.2319 
  77   0.0000       2.423548        65.9481 
  78   0.0000       2.430488        66.1369 
  79   0.0000       2.529240        68.8241 
  80   0.0000       2.529240        68.8241 
  81   0.0000       2.561812        69.7104 
  82   0.0000       2.561812        69.7104 
  83   0.0000       2.571113        69.9635 
  84   0.0000       2.615967        71.1841 
  85   0.0000       2.617226        71.2183 
  86   0.0000       2.640477        71.8510 
  87   0.0000       2.640753        71.8585 
  88   0.0000       2.667020        72.5733 
  89   0.0000       2.667020        72.5733 
  90   0.0000       2.746184        74.7275 
  91   0.0000       2.773462        75.4697 
  92   0.0000       2.773462        75.4697 
  93   0.0000       2.871881        78.1479 
  94   0.0000       2.980300        81.0981 
  95   0.0000       2.980300        81.0981 
  96   0.0000       3.181490        86.5727 
  97   0.0000       3.186029        86.6963 
  98   0.0000       3.257118        88.6307 
  99   0.0000       3.704057       100.7925 
 100   0.0000       3.704057       100.7925 
 101   0.0000       3.847484       104.6954 
 102   0.0000       3.847667       104.7003 
 103   0.0000       4.014928       109.2517 
 104   0.0000       4.122845       112.1883 
 105   0.0000       4.122845       112.1883 
 106   0.0000       4.639389       126.2442 
 107   0.0000       4.829980       131.4304 
 108   0.0000       4.829980       131.4304 
 109   0.0000       5.388022       146.6155 
 110   0.0000       7.444565       202.5769 
 111   0.0000       7.444565       202.5769 
 112   0.0000       7.461134       203.0278 
 113   0.0000       7.461371       203.0342 
 114   0.0000       7.530403       204.9127 
 115   0.0000       7.530403       204.9127 
 116   0.0000       7.695030       209.3924 
 117   0.0000       7.951743       216.3779 
 118   0.0000       7.951928       216.3830 
 119   0.0000       7.956951       216.5197 
 120   0.0000       7.956951       216.5197 
 121   0.0000       8.003427       217.7843 
 122   0.0000       8.009414       217.9472 
 123   0.0000       8.214600       223.5306 
 124   0.0000       8.214600       223.5306 
 125   0.0000       8.241549       224.2639 
 126   0.0000       8.371927       227.8117 
 127   0.0000       8.371927       227.8117 
 128   0.0000       8.480164       230.7570 
 129   0.0000       8.535044       232.2504 
 130   0.0000       8.726285       237.4543 
 131   0.0000       8.730399       237.5662 
 132   0.0000       8.805739       239.6163 
 133   0.0000       8.815627       239.8854 
 134   0.0000       8.815627       239.8854 
 135   0.0000       8.909707       242.4454 
 136   0.0000       8.909707       242.4454 
 137   0.0000       9.203187       250.4315 
 138   0.0000      14.008195       381.1824 

                    ********************************
                    * MULLIKEN POPULATION ANALYSIS *
                    ********************************

--------------------------------------------
MULLIKEN ATOMIC CHARGES AND SPIN POPULATIONS
--------------------------------------------
   0 Mn:    0.587381    5.846358
   1 F :   -0.587381    0.153642
Sum of atomic charges         :    0.0000000
Sum of atomic spin populations:    6.0000000

-----------------------------------------------------
MULLIKEN REDUCED ORBITAL CHARGES AND SPIN POPULATIONS
-----------------------------------------------------
CHARGE
  0 Mns       :     6.927439  s :     6.927439
      pz      :     4.215386  p :    12.282465
      px      :     4.033539
      py      :     4.033539
      dz2     :     1.071222  d :     5.183393
      dxz     :     1.056303
      dyz     :     1.056303
      dx2y2   :     0.999778
      dxy     :     0.999786
      f0      :     0.007178  f :     0.016114
      f+1     :     0.004440
      f-1     :     0.004440
      f+2     :     0.000028
      f-2     :     0.000028
      f+3     :     0.000000
      f-3     :     0.000000
      g0      :     0.001608  g :     0.003209
      g+1     :     0.000798
      g-1     :     0.000798
      g+2     :     0.000002
      g-2     :     0.000002
      g+3     :     0.000000
      g-3     :     0.000000
      g+4     :     0.000000
      g-4     :     0.000000
  1 F s       :     3.992447  s :     3.992447
      pz      :     1.781826  p :     5.582783
      px      :     1.900478
      py      :     1.900478
      dz2     :     0.002283  d :     0.010650
      dxz     :     0.004034
      dyz     :     0.004034
      dx2y2   :     0.000152
      dxy     :     0.000146
      f0      :     0.000610  f :     0.001501
      f+1     :     0.000405
      f-1     :     0.000405
      f+2     :     0.000040
      f-2     :     0.000038
      f+3     :     0.000001
      f-3     :     0.000001

SPIN
  0 Mns       :     0.863608  s :     0.863608
      pz      :     0.185714  p :     0.213622
      px      :     0.013954
      py      :     0.013954
      dz2     :     0.884072  d :     4.767025
      dxz     :     0.941695
      dyz     :     0.941695
      dx2y2   :     0.999778
      dxy     :     0.999786
      f0      :     0.000385  f :     0.002197
      f+1     :     0.000878
      f-1     :     0.000878
      f+2     :     0.000028
      f-2     :     0.000028
      f+3     :     0.000000
      f-3     :     0.000000
      g0      :    -0.000069  g :    -0.000095
      g+1     :    -0.000015
      g-1     :    -0.000015
      g+2     :     0.000002
      g-2     :     0.000002
      g+3     :     0.000000
      g-3     :     0.000000
      g+4     :     0.000000
      g-4     :    -0.000000
  1 F s       :     0.003693  s :     0.003693
      pz      :     0.062380  p :     0.150560
      px      :     0.044090
      py      :     0.044090
      dz2     :     0.000084  d :    -0.000907
      dxz     :    -0.000645
      dyz     :    -0.000645
      dx2y2   :     0.000152
      dxy     :     0.000146
      f0      :     0.000133  f :     0.000296
      f+1     :     0.000043
      f-1     :     0.000043
      f+2     :     0.000040
      f-2     :     0.000038
      f+3     :     0.000000
      f-3     :     0.000000


                     *******************************
                     * LOEWDIN POPULATION ANALYSIS *
                     *******************************

-------------------------------------------
LOEWDIN ATOMIC CHARGES AND SPIN POPULATIONS
-------------------------------------------
   0 Mn:    0.417136    5.719050
   1 F :   -0.417136    0.280950

----------------------------------------------------
LOEWDIN REDUCED ORBITAL CHARGES AND SPIN POPULATIONS
----------------------------------------------------
CHARGE
  0 Mns       :     6.720316  s :     6.720316
      pz      :     4.302653  p :    12.385137
      px      :     4.041242
      py      :     4.041242
      dz2     :     1.145195  d :     5.261631
      dxz     :     1.060678
      dyz     :     1.060678
      dx2y2   :     0.997537
      dxy     :     0.997543
      f0      :     0.085412  f :     0.190829
      f+1     :     0.052598
      f-1     :     0.052598
      f+2     :     0.000111
      f-2     :     0.000110
      f+3     :     0.000000
      f-3     :     0.000000
      g0      :     0.012610  g :     0.024950
      g+1     :     0.006151
      g-1     :     0.006151
      g+2     :     0.000019
      g-2     :     0.000019
      g+3     :     0.000000
      g-3     :     0.000000
      g+4     :     0.000000
      g-4     :     0.000000
  1 F s       :     3.740509  s :     3.740509
      pz      :     1.884749  p :     5.482600
      px      :     1.798925
      py      :     1.798925
      dz2     :     0.091976  d :     0.161995
      dxz     :     0.033298
      dyz     :     0.033298
      dx2y2   :     0.001713
      dxy     :     0.001710
      f0      :     0.016579  f :     0.032033
      f+1     :     0.007107
      f-1     :     0.007107
      f+2     :     0.000620
      f-2     :     0.000618
      f+3     :     0.000001
      f-3     :     0.000001

SPIN
  0 Mns       :     0.756737  s :     0.756737
      pz      :     0.239314  p :     0.282033
      px      :     0.021360
      py      :     0.021360
      dz2     :     0.856221  d :     4.661722
      dxz     :     0.905211
      dyz     :     0.905211
      dx2y2   :     0.997537
      dxy     :     0.997543
      f0      :     0.003667  f :     0.015707
      f+1     :     0.005909
      f-1     :     0.005909
      f+2     :     0.000111
      f-2     :     0.000110
      f+3     :     0.000000
      f-3     :     0.000000
      g0      :     0.001071  g :     0.002852
      g+1     :     0.000872
      g-1     :     0.000872
      g+2     :     0.000019
      g-2     :     0.000019
      g+3     :     0.000000
      g-3     :     0.000000
      g+4     :     0.000000
      g-4     :    -0.000000
  1 F s       :     0.032580  s :     0.032580
      pz      :     0.099977  p :     0.183590
      px      :     0.041806
      py      :     0.041806
      dz2     :     0.006679  d :     0.049281
      dxz     :     0.019589
      dyz     :     0.019589
      dx2y2   :     0.001713
      dxy     :     0.001710
      f0      :     0.003754  f :     0.015499
      f+1     :     0.005254
      f-1     :     0.005254
      f+2     :     0.000620
      f-2     :     0.000618
      f+3     :     0.000000
      f-3     :     0.000000


                      *****************************
                      * MAYER POPULATION ANALYSIS *
                      *****************************

  NA   - Mulliken gross atomic population
  ZA   - Total nuclear charge
  QA   - Mulliken gross atomic charge
  VA   - Mayer's total valence
  BVA  - Mayer's bonded valence
  FA   - Mayer's free valence

  ATOM       NA         ZA         QA         VA         BVA        FA
  0 Mn    24.4126    25.0000     0.5874     6.4084     0.7591     5.6493
  1 F      9.5874     9.0000    -0.5874     0.7694     0.7591     0.0103

  Mayer bond orders larger than 0.100000
B(  0-Mn,  1-F ) :   0.7591 

-------
TIMINGS
-------

Total SCF time: 0 days 0 hours 0 min 0 sec 

Total time                  ....       0.820 sec
Sum of individual times     ....       0.668 sec  ( 81.5%)

Fock matrix formation       ....       0.508 sec  ( 62.0%)
  Split-RI-J                ....       0.263 sec  ( 51.7% of F)
  XC integration            ....       0.078 sec  ( 15.4% of F)
    Basis function eval.    ....       0.008 sec  ( 10.5% of XC)
    Density eval.           ....       0.010 sec  ( 12.7% of XC)
    XC-Functional eval.     ....       0.002 sec  (  3.0% of XC)
    XC-Potential eval.      ....       0.027 sec  ( 34.9% of XC)
Diagonalization             ....       0.010 sec  (  1.2%)
Density matrix formation    ....       0.002 sec  (  0.2%)
Population analysis         ....       0.007 sec  (  0.9%)
Initial guess               ....       0.014 sec  (  1.7%)
Orbital Transformation      ....       0.000 sec  (  0.0%)
Orbital Orthonormalization  ....       0.008 sec  (  1.0%)
DIIS solution               ....       0.001 sec  (  0.2%)
Grid generation             ....       0.125 sec  ( 15.3%)


-------------------------------------------------------------------------------
                          DFT DISPERSION CORRECTION                            
                                                                               
                              DFTD3 V3.1  Rev 1                                
                          USING Becke-Johnson damping                          
-------------------------------------------------------------------------------
The TPSS functional is recognized
Active option DFTDOPT                   ...         4   

molecular C6(AA) [au] = 361.386732 


            DFT-D V3
 parameters
 s6 scaling factor         :     1.0000 
 a1 scaling factor         :     0.4535 
 s8 scaling factor         :     1.9435 
 a2 scaling factor         :     4.4752 
 ad hoc parameters k1-k3   :    16.0000     1.3333    -4.0000 

 Edisp/kcal,au: -0.344668263076  -0.000549263781 
 E6   /kcal   :  -0.138527196 
 E8   /kcal   :  -0.206141067 
 % E8         :  59.808543235 

-------------------------   ----------------
Dispersion correction           -0.000549264
-------------------------   ----------------


-------------------------   --------------------
FINAL SINGLE POINT ENERGY     -1250.977600785760
-------------------------   --------------------

                                *** OPTIMIZATION RUN DONE ***

                            ***************************************
                            *     ORCA property calculations      *
                            ***************************************

                                    ---------------------
                                    Active property flags
                                    ---------------------
   (+) Dipole Moment


------------------------------------------------------------------------------
                       ORCA ELECTRIC PROPERTIES CALCULATION
------------------------------------------------------------------------------

Dipole Moment Calculation                       ... on
Quadrupole Moment Calculation                   ... off
Polarizability Calculation                      ... off
GBWName                                         ... 26_MnF.gbw
Electron density file                           ... 26_MnF.scfp
The origin for moment calculation is the CENTER OF MASS  = ( 0.000000,  0.000000  1.050021)

-------------
DIPOLE MOMENT
-------------
                                X             Y             Z
Electronic contribution:      0.00000      -0.00000      -1.71894
Nuclear contribution   :      0.00000       0.00000       0.91162
                        -----------------------------------------
Total Dipole Moment    :      0.00000      -0.00000      -0.80733
                        -----------------------------------------
Magnitude (a.u.)       :      0.80733
Magnitude (Debye)      :      2.05207



--------------------
Rotational spectrum 
--------------------
 
Rotational constants in cm-1:     0.000000     0.357290     0.357290 
Rotational constants in MHz :     0.000000 10711.297675 10711.297675 

 Dipole components along the rotational axes: 
x,y,z [a.u.] :    -0.807328    -0.000000     0.000000 
x,y,z [Debye]:    -2.052066    -0.000000     0.000000 

 

Timings for individual modules:

Sum of individual times         ...       64.177 sec (=   1.070 min)
GTO integral calculation        ...       18.162 sec (=   0.303 min)  28.3 %
SCF iterations                  ...       17.893 sec (=   0.298 min)  27.9 %
SCF Gradient evaluation         ...       27.928 sec (=   0.465 min)  43.5 %
Geometry relaxation             ...        0.194 sec (=   0.003 min)   0.3 %
                             ****ORCA TERMINATED NORMALLY****
TOTAL RUN TIME: 0 days 0 hours 1 minutes 5 seconds 120 msec
