
                                 *****************
                                 * O   R   C   A *
                                 *****************

           --- An Ab Initio, DFT and Semiempirical electronic structure package ---

                  #######################################################
                  #                        -***-                        #
                  #          Department of theory and spectroscopy      #
                  #               Directorship: Frank Neese             #
                  #        Max Planck Institute fuer Kohlenforschung    #
                  #                Kaiser Wilhelm Platz 1               #
                  #                 D-45470 Muelheim/Ruhr               #
                  #                      Germany                        #
                  #                                                     #
                  #                  All rights reserved                #
                  #                        -***-                        #
                  #######################################################


                         Program Version 4.2.0 -  RELEASE  -


 With contributions from (in alphabetic order):
   Daniel Aravena         : Magnetic Suceptibility
   Michael Atanasov       : Ab Initio Ligand Field Theory (pilot matlab implementation)
   Alexander A. Auer      : GIAO ZORA, VPT2
   Ute Becker             : Parallelization
   Giovanni Bistoni       : ED, misc. LED, open-shell LED, HFLED
   Martin Brehm           : Molecular dynamics
   Dmytro Bykov           : SCF Hessian
   Vijay G. Chilkuri      : MRCI spin determinant printing, contributions to CSF-ICE
   Dipayan Datta          : RHF DLPNO-CCSD density
   Achintya Kumar Dutta   : EOM-CC, STEOM-CC
   Dmitry Ganyushin       : Spin-Orbit,Spin-Spin,Magnetic field MRCI
   Miquel Garcia          : C-PCM Hessian, Gaussian charge scheme
   Yang Guo               : DLPNO-NEVPT2, CIM, IAO-localization
   Andreas Hansen         : Spin unrestricted coupled pair/coupled cluster methods
   Benjamin Helmich-Paris : CASSCF linear response (MC-RPA)
   Lee Huntington         : MR-EOM, pCC
   Robert Izsak           : Overlap fitted RIJCOSX, COSX-SCS-MP3, EOM
   Christian Kollmar      : KDIIS, OOCD, Brueckner-CCSD(T), CCSD density
   Simone Kossmann        : Meta GGA functionals, TD-DFT gradient, OOMP2, MP2 Hessian
   Martin Krupicka        : AUTO-CI
   Lucas Lang             : DCDCAS
   Dagmar Lenk            : GEPOL surface, SMD
   Dimitrios Liakos       : Extrapolation schemes; Compound Job, initial MDCI parallelization
   Dimitrios Manganas     : Further ROCIS development; embedding schemes
   Dimitrios Pantazis     : SARC Basis sets
   Taras Petrenko         : DFT Hessian,TD-DFT gradient, ASA, ECA, R-Raman, ABS, FL, XAS/XES, NRVS
   Peter Pinski           : DLPNO-MP2, DLPNO-MP2 Gradient
   Christoph Reimann      : Effective Core Potentials
   Marius Retegan         : Local ZFS, SOC
   Christoph Riplinger    : Optimizer, TS searches, QM/MM, DLPNO-CCSD(T), (RO)-DLPNO pert. Triples
   Tobias Risthaus        : Range-separated hybrids, TD-DFT gradient, RPA, STAB
   Michael Roemelt        : Original ROCIS implementation
   Masaaki Saitow         : Open-shell DLPNO-CCSD energy and density
   Barbara Sandhoefer     : DKH picture change effects
   Avijit Sen             : IP-ROCIS
   Kantharuban Sivalingam : CASSCF convergence, NEVPT2, FIC-MRCI
   Bernardo de Souza      : ESD, SOC TD-DFT
   Georgi Stoychev        : AutoAux, RI-MP2 NMR
   Willem Van den Heuvel  : Paramagnetic NMR
   Boris Wezisla          : Elementary symmetry handling
   Frank Wennmohs         : Technical directorship


 We gratefully acknowledge several colleagues who have allowed us to
 interface, adapt or use parts of their codes:
   Stefan Grimme, W. Hujo, H. Kruse,             : VdW corrections, initial TS optimization,
                  C. Bannwarth                     DFT functionals, gCP, sTDA/sTD-DF
   Ed Valeev, F. Pavosevic, A. Kumar             : LibInt (2-el integral package), F12 methods
   Garnet Chan, S. Sharma, J. Yang, R. Olivares  : DMRG
   Ulf Ekstrom                                   : XCFun DFT Library
   Mihaly Kallay                                 : mrcc  (arbitrary order and MRCC methods)
   Andreas Klamt, Michael Diedenhofen            : otool_cosmo (COSMO solvation model)
   Jiri Pittner, Ondrej Demel                    : Mk-CCSD
   Frank Weinhold                                : gennbo (NPA and NBO analysis)
   Christopher J. Cramer and Donald G. Truhlar   : smd solvation model
   Lars Goerigk                                  : TD-DFT with DH, B97 family of functionals
   V. Asgeirsson, H. Jonsson                     : NEB implementation
   FAccTs GmbH                                   : IRC, NEB, NEB-TS, Multilevel, MM, QM/MM, CI optimization
   S Lehtola, MJT Oliveira, MAL Marques          : LibXC Library


 Your calculation uses the libint2 library for the computation of 2-el integrals
 For citations please refer to: http://libint.valeyev.net

 Your ORCA version has been built with support for libXC version: 4.2.3
 For citations please refer to: https://tddft.org/programs/libxc/

 This ORCA versions uses:
   CBLAS   interface :  Fast vector & matrix operations
   LAPACKE interface :  Fast linear algebra routines
   SCALAPACK package :  Parallel linear algebra routines


Your calculation utilizes the atom-pairwise dispersion correction
with the Becke-Johnson damping scheme (D3BJ)
Cite in your paper:
S.Grimme, S.Ehrlich, L.Goerigk, J Comput Chem, (2011), 32, 1456–1465 
S.Grimme, J.Antony, S.Ehrlich and H.Krieg, J.Chem.Phys., 132, (2010), 154104 
   

----- Orbital basis set information -----
Your calculation utilizes the basis: aug-cc-pVTZ 
    H, B-Ne : Obtained from the ccRepo (grant-hill.group.shef.ac.uk/ccrepo) Feb. 2017
              R. A. Kendall, T. H. Dunning, Jr., R. J. Harrison, J. Chem. Phys. 96, 6796 (1992)
         He : Obtained from the ccRepo (grant-hill.group.shef.ac.uk/ccrepo) Feb. 2017
              D. E. Woon, T. H. Dunning, Jr., J. Chem. Phys. 100, 2975 (1994)
  Li-Be, Na : Obtained from the ccRepo (grant-hill.group.shef.ac.uk/ccrepo) Feb. 2017
              B. P. Prascher, D. E. Woon, K. A. Peterson, T. H. Dunning, Jr., A. K. Wilson, Theor. Chem. Acc. 128, 69 (2011)
         Mg : Obtained from the Peterson Research Group Website (tyr0.chem.wsu.edu/~kipeters) Feb. 2017
              B. P. Prascher, D. E. Woon, K. A. Peterson, T. H. Dunning, Jr., A. K. Wilson, Theor. Chem. Acc. 128, 69 (2011)
      Al-Ar : Obtained from the ccRepo (grant-hill.group.shef.ac.uk/ccrepo) Feb. 2017
              D. E. Woon, T. H. Dunning, Jr., J. Chem. Phys. 98, 1358 (1993)
      Sc-Zn : Obtained from the ccRepo (grant-hill.group.shef.ac.uk/ccrepo) Feb. 2017
              N. B. Balabanov, K. A. Peterson, J. Chem. Phys. 123, 064107 (2005)
              N. B. Balabanov, K. A. Peterson, J. Chem. Phys. 125, 074110 (2006)
      Ga-Kr : Obtained from the ccRepo (grant-hill.group.shef.ac.uk/ccrepo) Feb. 2017
              A. K. Wilson, D. E. Woon, K. A. Peterson, T. H. Dunning, Jr., J. Chem. Phys. 110, 7667 (1999)
     Ag, Au : Obtained from the Peterson Research Group Website (tyr0.chem.wsu.edu/~kipeters) Feb. 2017
              K. A. Peterson, C. Puzzarini, Theor. Chem. Acc. 114, 283 (2005)

----- AuxJ basis set information -----
Your calculation utilizes the auxiliary basis: def2/J
   F. Weigend, Phys. Chem. Chem. Phys. 8, 1057 (2006).

================================================================================
                                        WARNINGS
                       Please study these warnings very carefully!
================================================================================


WARNING: your system is open-shell and RHF/RKS was chosen
  ===> : WILL SWITCH to UHF/UKS


WARNING: Geometry Optimization
  ===> : Switching off AutoStart
         For restart on a previous wavefunction, please use MOREAD

INFO   : the flag for use of LIBINT has been found!

================================================================================
                                       INPUT FILE
================================================================================
NAME = 27_MnCl.in
|  1> #
|  2> # 27_MnCl tpss/aug-cc-pvtz
|  3> #
|  4> ! tpss d3bj aug-cc-pvtz def2/j opt xyzfile
|  5> 
|  6> *xyz 0 7
|  7> Mn 0.0 0.0 0.0
|  8> Cl 0.0 0.0 2.0
|  9> *
| 10> 
| 11> %pal
| 12> nprocs 24
| 13> end
| 14> 
| 15> 
| 16>                          ****END OF INPUT****
================================================================================

                       *****************************
                       * Geometry Optimization Run *
                       *****************************

Geometry optimization settings:
Update method            Update   .... BFGS
Choice of coordinates    CoordSys .... Z-matrix Internals
Initial Hessian          InHess   .... Almoef's Model

Convergence Tolerances:
Energy Change            TolE     ....  5.0000e-06 Eh
Max. Gradient            TolMAXG  ....  3.0000e-04 Eh/bohr
RMS Gradient             TolRMSG  ....  1.0000e-04 Eh/bohr
Max. Displacement        TolMAXD  ....  4.0000e-03 bohr
RMS Displacement         TolRMSD  ....  2.0000e-03 bohr
Strict Convergence                ....  False
------------------------------------------------------------------------------
                        ORCA OPTIMIZATION COORDINATE SETUP
------------------------------------------------------------------------------

The optimization will be done in new redundant internal coordinates
Making redundant internal coordinates   ...  (new redundants) done
Evaluating the initial hessian          ...  (Almloef) done
Evaluating the coordinates              ...  done
Calculating the B-matrix                .... done
Calculating the G-matrix                .... done
Diagonalizing the G-matrix              .... done
The first mode is                       ....    0
The number of degrees of freedom        ....    1

    -----------------------------------------------------------------
                    Redundant Internal Coordinates


    -----------------------------------------------------------------
         Definition                    Initial Value    Approx d2E/dq
    -----------------------------------------------------------------
      1. B(Cl  1,Mn  0)                  2.0000         1.508840   
    -----------------------------------------------------------------

Number of atoms                         .... 2
Number of degrees of freedom            .... 1

         *************************************************************
         *                GEOMETRY OPTIMIZATION CYCLE   1            *
         *************************************************************
---------------------------------
CARTESIAN COORDINATES (ANGSTROEM)
---------------------------------
  Mn     0.000000    0.000000    0.000000
  Cl     0.000000    0.000000    2.000000

----------------------------
CARTESIAN COORDINATES (A.U.)
----------------------------
  NO LB      ZA    FRAG     MASS         X           Y           Z
   0 Mn   25.0000    0    54.940    0.000000    0.000000    0.000000
   1 Cl   17.0000    0    35.453    0.000000    0.000000    3.779452

--------------------------------
INTERNAL COORDINATES (ANGSTROEM)
--------------------------------
 Mn     0   0   0     0.000000000000     0.00000000     0.00000000
 Cl     1   0   0     2.000000000000     0.00000000     0.00000000

---------------------------
INTERNAL COORDINATES (A.U.)
---------------------------
 Mn     0   0   0     0.000000000000     0.00000000     0.00000000
 Cl     1   0   0     3.779452267843     0.00000000     0.00000000

---------------------
BASIS SET INFORMATION
---------------------
There are 2 groups of distinct atoms

 Group   1 Type Mn  : 116s77p23d3f2g contracted to 8s7p5d3f2g pattern {19191919191911/151515151511/77711/111/11}
 Group   2 Type Cl  : 42s17p3d2f contracted to 6s5p3d2f pattern {131313111/77111/111/11}

Atom   0Mn   basis set group =>   1
Atom   1Cl   basis set group =>   2
---------------------------------
AUXILIARY/J BASIS SET INFORMATION
---------------------------------
There are 2 groups of distinct atoms

 Group   1 Type Mn  : 19s5p5d3f3g contracted to 8s5p5d2f3g pattern {121111111/11111/11111/21/111}
 Group   2 Type Cl  : 14s5p5d2f1g contracted to 8s4p3d1f1g pattern {71111111/2111/311/2/1}

Atom   0Mn   basis set group =>   1
Atom   1Cl   basis set group =>   2


           ************************************************************
           *        Program running with 24 parallel MPI-processes    *
           *              working on a common directory               *
           ************************************************************
------------------------------------------------------------------------------
                           ORCA GTO INTEGRAL CALCULATION
                           -- RI-GTO INTEGRALS CHOSEN --
------------------------------------------------------------------------------

                         BASIS SET STATISTICS AND STARTUP INFO

Gaussian basis set:
 # of primitive gaussian shells          ...  285
 # of primitive gaussian functions       ...  623
 # of contracted shells                  ...   41
 # of contracted basis functions         ...  143
 Highest angular momentum                ...    4
 Maximum contraction depth               ...   19
Auxiliary gaussian basis set:
 # of primitive gaussian shells          ...   62
 # of primitive gaussian functions       ...  184
 # of contracted shells                  ...   40
 # of contracted aux-basis functions     ...  140
 Highest angular momentum                ...    4
 Maximum contraction depth               ...   12
Ratio of auxiliary to basis functions    ...  0.98
Integral package used                  ... LIBINT
 One Electron integrals                  ... done
 Ordering auxiliary basis shells         ... done
 Integral threshhold             Thresh  ...  2.500e-11
 Primitive cut-off               TCut    ...  2.500e-12
 Pre-screening matrix                    ... done
 Shell pair data                         ... 
 Ordering of the shell pairs             ... done (   0.000 sec) 861 of 861 pairs
 Determination of significant pairs      ... done (   0.000 sec)
 Creation of shell pair data             ... done (   0.001 sec)
 Storage of shell pair data              ... done (   0.010 sec)
 Shell pair data done in (   0.011 sec)
 Computing two index integrals           ... done
 Cholesky decomposition of the V-matrix  ... done


Timings:
 Total evaluation time                   ...   2.571 sec (  0.043 min)
 One electron matrix time                ...   0.031 sec (  0.001 min) =  1.2%
 Schwartz matrix evaluation time         ...   2.491 sec (  0.042 min) = 96.9%
 Two index repulsion integral time       ...   0.001 sec (  0.000 min) =  0.0%
 Cholesky decomposition of V             ...   0.001 sec (  0.000 min) =  0.0%
 Three index repulsion integral time     ...   0.000 sec (  0.000 min) =  0.0%



           ************************************************************
           *        Program running with 24 parallel MPI-processes    *
           *              working on a common directory               *
           ************************************************************
-------------------------------------------------------------------------------
                                 ORCA SCF
-------------------------------------------------------------------------------

------------
SCF SETTINGS
------------
Hamiltonian:
 Density Functional     Method          .... DFT(GTOs)
 Exchange Functional    Exchange        .... TPSS
 Correlation Functional Correlation     .... TPSS
 LDA part of GGA corr.  LDAOpt          .... PW91-LDA
 Gradients option       PostSCFGGA      .... off
   Density functional embedding theory  .... OFF
   NL short-range parameter             ....  5.000000
 RI-approximation to the Coulomb term is turned on
   Number of auxiliary basis functions  .... 140


General Settings:
 Integral files         IntName         .... 27_MnCl
 Hartree-Fock type      HFTyp           .... UHF
 Total Charge           Charge          ....    0
 Multiplicity           Mult            ....    7
 Number of Electrons    NEL             ....   42
 Basis Dimension        Dim             ....  143
 Nuclear Repulsion      ENuc            ....    112.4501567638 Eh

Convergence Acceleration:
 DIIS                   CNVDIIS         .... on
   Start iteration      DIISMaxIt       ....    12
   Startup error        DIISStart       ....  0.200000
   # of expansion vecs  DIISMaxEq       ....     5
   Bias factor          DIISBfac        ....   1.050
   Max. coefficient     DIISMaxC        ....  10.000
 Newton-Raphson         CNVNR           .... off
 SOSCF                  CNVSOSCF        .... off
 Level Shifting         CNVShift        .... on
   Level shift para.    LevelShift      ....    0.2500
   Turn off err/grad.   ShiftErr        ....    0.0010
 Zerner damping         CNVZerner       .... off
 Static damping         CNVDamp         .... on
   Fraction old density DampFac         ....    0.7000
   Max. Damping (<1)    DampMax         ....    0.9800
   Min. Damping (>=0)   DampMin         ....    0.0000
   Turn off err/grad.   DampErr         ....    0.1000
 Fernandez-Rico         CNVRico         .... off

SCF Procedure:
 Maximum # iterations   MaxIter         ....   125
 SCF integral mode      SCFMode         .... Direct
   Integral package                     .... LIBINT
 Reset frequency        DirectResetFreq ....    20
 Integral Threshold     Thresh          ....  2.500e-11 Eh
 Primitive CutOff       TCut            ....  2.500e-12 Eh

Convergence Tolerance:
 Convergence Check Mode ConvCheckMode   .... Total+1el-Energy
 Convergence forced     ConvForced      .... 0
 Energy Change          TolE            ....  1.000e-08 Eh
 1-El. energy change                    ....  1.000e-05 Eh
 DIIS Error             TolErr          ....  5.000e-07


Diagonalization of the overlap matrix:
Smallest eigenvalue                        ... 6.442e-05
Time for diagonalization                   ...    0.006 sec
Threshold for overlap eigenvalues          ... 1.000e-08
Number of eigenvalues below threshold      ... 0
Time for construction of square roots      ...    0.003 sec
Total time needed                          ...    0.009 sec

-------------------
DFT GRID GENERATION
-------------------

General Integration Accuracy     IntAcc      ...  4.340
Radial Grid Type                 RadialGrid  ... Gauss-Chebyshev
Angular Grid (max. acc.)         AngularGrid ... Lebedev-110
Angular grid pruning method      GridPruning ... 3 (G Style)
Weight generation scheme         WeightScheme... Becke
Basis function cutoff            BFCut       ...    1.0000e-11
Integration weight cutoff        WCut        ...    1.0000e-14
Grids for H and He will be reduced by one unit

# of grid points (after initial pruning)     ...   4756 (   0.0 sec)
# of grid points (after weights+screening)   ...   4731 (   0.0 sec)
nearest neighbour list constructed           ...    0.0 sec
Grid point re-assignment to atoms done       ...    0.0 sec
Grid point division into batches done        ...    0.0 sec
Reduced shell lists constructed in    0.0 sec

Total number of grid points                  ...     4731
Total number of batches                      ...       75
Average number of points per batch           ...       63
Average number of grid points per atom       ...     2366
Average number of shells per batch           ...    23.60 (57.56%)
Average number of basis functions per batch  ...    74.80 (52.31%)
Average number of large shells per batch     ...    17.60 (74.58%)
Average number of large basis fcns per batch ...    51.20 (68.45%)
Maximum spatial batch extension              ...  18.98, 28.73, 16.15 au
Average spatial batch extension              ...   0.95,  1.29,  0.86 au

Time for grid setup =    0.026 sec

------------------------------
INITIAL GUESS: MODEL POTENTIAL
------------------------------
Loading Hartree-Fock densities                     ... done
Calculating cut-offs                               ... done
Setting up the integral package                    ... done
Initializing the effective Hamiltonian             ... done
Starting the Coulomb interaction                   ... done (   0.0 sec)
Reading the grid                                   ... done
Mapping shells                                     ... done
Starting the XC term evaluation                    ... done (   0.0 sec)
  promolecular density results
     # of electrons  =     41.999771631
     EX              =    -78.005897307
     EC              =     -1.747779436
     EX+EC           =    -79.753676743
Transforming the Hamiltonian                       ... done (   0.0 sec)
Diagonalizing the Hamiltonian                      ... done (   0.0 sec)
Back transforming the eigenvectors                 ... done (   0.0 sec)
Now organizing SCF variables                       ... done
                      ------------------
                      INITIAL GUESS DONE (   0.1 sec)
                      ------------------
--------------
SCF ITERATIONS
--------------
ITER       Energy         Delta-E        Max-DP      RMS-DP      [F,P]     Damp
               ***  Starting incremental Fock matrix formation  ***
  0  -1611.2899955985   0.000000000000 0.04444627  0.00102849  0.0847877 0.7000
  1  -1611.3063558281  -0.016360229552 0.03296373  0.00047109  0.0358045 0.7000
                               ***Turning on DIIS***
  2  -1611.3117040061  -0.005348177996 0.06891524  0.00146104  0.0199489 0.0000
  3  -1611.3268663799  -0.015162373801 0.01923521  0.00045254  0.0189828 0.0000
  4  -1611.3284051833  -0.001538803423 0.00697821  0.00015985  0.0083933 0.0000
  5  -1611.3288286349  -0.000423451597 0.01097032  0.00022506  0.0021853 0.0000
  6  -1611.3288993657  -0.000070730826 0.00444491  0.00008336  0.0025117 0.0000
  7  -1611.3289266053  -0.000027239564 0.00183124  0.00003522  0.0005822 0.0000
  8  -1611.3289330507  -0.000006445426 0.00057722  0.00001149  0.0007513 0.0000
  9  -1611.3289349302  -0.000001879428 0.00014552  0.00000343  0.0002006 0.0000
 10  -1611.3289351963  -0.000000266098 0.00005761  0.00000105  0.0000799 0.0000
 11  -1611.3289352040  -0.000000007728 0.00001588  0.00000023  0.0000140 0.0000
 12  -1611.3289352161  -0.000000012142 0.00000594  0.00000011  0.0000041 0.0000
 13  -1611.3289352563  -0.000000040195 0.00000576  0.00000008  0.0000023 0.0000
                            ***DIIS convergence achieved***

               *****************************************************
               *                     SUCCESS                       *
               *           SCF CONVERGED AFTER  14 CYCLES          *
               *****************************************************

Setting up the final grid:

General Integration Accuracy     IntAcc      ...  4.670
Radial Grid Type                 RadialGrid  ... Gauss-Chebyshev
Angular Grid (max. acc.)         AngularGrid ... Lebedev-302
Angular grid pruning method      GridPruning ... 3 (G Style)
Weight generation scheme         WeightScheme... Becke
Basis function cutoff            BFCut       ...    1.0000e-11
Integration weight cutoff        WCut        ...    1.0000e-14
Grids for H and He will be reduced by one unit

# of grid points (after initial pruning)     ...  16402 (   0.0 sec)
# of grid points (after weights+screening)   ...  16373 (   0.0 sec)
nearest neighbour list constructed           ...    0.0 sec
Grid point re-assignment to atoms done       ...    0.0 sec
Grid point division into batches done        ...    0.1 sec
Reduced shell lists constructed in    0.1 sec

Total number of grid points                  ...    16373
Total number of batches                      ...      257
Average number of points per batch           ...       63
Average number of grid points per atom       ...     8186
Average number of shells per batch           ...    15.75 (38.41%)
Average number of basis functions per batch  ...    37.42 (26.17%)
Average number of large shells per batch     ...     8.58 (54.50%)
Average number of large basis fcns per batch ...    21.25 (56.79%)
Maximum spatial batch extension              ...  24.49, 24.19, 18.13 au
Average spatial batch extension              ...   0.85,  0.84,  0.65 au

Final grid set up in    0.1 sec
Final integration                            ... done (   0.0 sec)
Change in XC energy                          ...     0.001478069
Integrated number of electrons               ...    42.000006981
Previous integrated no of electrons          ...    41.999930015

----------------
TOTAL SCF ENERGY
----------------

Total Energy       :        -1611.32745716 Eh          -43846.44922 eV

Components:
Nuclear Repulsion  :          112.45015676 Eh            3059.92433 eV
Electronic Energy  :        -1723.77761393 Eh          -46906.37355 eV
One Electron Energy:        -2445.45943987 Eh          -66544.33441 eV
Two Electron Energy:          721.68182594 Eh           19637.96086 eV

Virial components:
Potential Energy   :        -3220.03839338 Eh          -87621.69928 eV
Kinetic Energy     :         1608.71093621 Eh           43775.25007 eV
Virial Ratio       :            2.00162647


DFT components:
N(Alpha)           :       24.000003468071 electrons
N(Beta)            :       18.000003512974 electrons
N(Total)           :       42.000006981045 electrons
E(X)               :      -78.749432553163 Eh       
E(C)               :       -1.728566417034 Eh       
E(XC)              :      -80.477998970197 Eh       
DFET-embed. en.    :        0.000000000000 Eh       

---------------
SCF CONVERGENCE
---------------

  Last Energy change         ...    2.2625e-08  Tolerance :   1.0000e-08
  Last MAX-Density change    ...    2.3206e-06  Tolerance :   1.0000e-07
  Last RMS-Density change    ...    2.6410e-08  Tolerance :   5.0000e-09
  Last DIIS Error            ...    4.0529e-07  Tolerance :   5.0000e-07

             **** THE GBW FILE WAS UPDATED (27_MnCl.gbw) ****
             **** DENSITY FILE WAS UPDATED (27_MnCl.scfp) ****
             **** ENERGY FILE WAS UPDATED (27_MnCl.en.tmp) ****
----------------------
UHF SPIN CONTAMINATION
----------------------

Warning: in a DFT calculation there is little theoretical justification to 
         calculate <S**2> as in Hartree-Fock theory. We will do it anyways
         but you should keep in mind that the values have only limited relevance

Expectation value of <S**2>     :    12.004355
Ideal value S*(S+1) for S=3.0   :    12.000000
Deviation                       :     0.004355

             **** THE GBW FILE WAS UPDATED (27_MnCl.gbw) ****
             **** DENSITY FILE WAS UPDATED (27_MnCl.scfp) ****
----------------
ORBITAL ENERGIES
----------------
                 SPIN UP ORBITALS
  NO   OCC          E(Eh)            E(eV) 
   0   1.0000    -234.717082     -6386.9765 
   1   1.0000    -101.006591     -2748.5291 
   2   1.0000     -27.016256      -735.1497 
   3   1.0000     -23.101433      -628.6219 
   4   1.0000     -23.101433      -628.6219 
   5   1.0000     -23.097512      -628.5152 
   6   1.0000      -9.236962      -251.3505 
   7   1.0000      -7.012288      -190.8141 
   8   1.0000      -7.011226      -190.7852 
   9   1.0000      -7.011226      -190.7852 
  10   1.0000      -3.178117       -86.4810 
  11   1.0000      -2.063908       -56.1618 
  12   1.0000      -2.063908       -56.1618 
  13   1.0000      -2.056030       -55.9474 
  14   1.0000      -0.756568       -20.5873 
  15   1.0000      -0.376258       -10.2385 
  16   1.0000      -0.346485        -9.4283 
  17   1.0000      -0.346485        -9.4283 
  18   1.0000      -0.309265        -8.4155 
  19   1.0000      -0.308913        -8.4059 
  20   1.0000      -0.267344        -7.2748 
  21   1.0000      -0.260485        -7.0881 
  22   1.0000      -0.260485        -7.0881 
  23   1.0000      -0.159474        -4.3395 
  24   0.0000      -0.051364        -1.3977 
  25   0.0000      -0.051364        -1.3977 
  26   0.0000      -0.007131        -0.1940 
  27   0.0000       0.000037         0.0010 
  28   0.0000       0.018947         0.5156 
  29   0.0000       0.018947         0.5156 
  30   0.0000       0.039252         1.0681 
  31   0.0000       0.039518         1.0753 
  32   0.0000       0.041718         1.1352 
  33   0.0000       0.048670         1.3244 
  34   0.0000       0.048670         1.3244 
  35   0.0000       0.055024         1.4973 
  36   0.0000       0.087044         2.3686 
  37   0.0000       0.108277         2.9464 
  38   0.0000       0.108277         2.9464 
  39   0.0000       0.109307         2.9744 
  40   0.0000       0.142177         3.8688 
  41   0.0000       0.142177         3.8688 
  42   0.0000       0.172044         4.6815 
  43   0.0000       0.183857         5.0030 
  44   0.0000       0.184283         5.0146 
  45   0.0000       0.207722         5.6524 
  46   0.0000       0.207722         5.6524 
  47   0.0000       0.225541         6.1373 
  48   0.0000       0.245881         6.6908 
  49   0.0000       0.246507         6.7078 
  50   0.0000       0.295194         8.0326 
  51   0.0000       0.326800         8.8927 
  52   0.0000       0.326800         8.8927 
  53   0.0000       0.376800        10.2533 
  54   0.0000       0.447867        12.1871 
  55   0.0000       0.561734        15.2856 
  56   0.0000       0.561734        15.2856 
  57   0.0000       0.603045        16.4097 
  58   0.0000       0.603045        16.4097 
  59   0.0000       0.621930        16.9236 
  60   0.0000       0.621930        16.9236 
  61   0.0000       0.650732        17.7073 
  62   0.0000       0.657525        17.8922 
  63   0.0000       0.658997        17.9322 
  64   0.0000       0.702114        19.1055 
  65   0.0000       0.702512        19.1163 
  66   0.0000       0.726476        19.7684 
  67   0.0000       0.726476        19.7684 
  68   0.0000       0.769842        20.9485 
  69   0.0000       0.774476        21.0746 
  70   0.0000       0.774476        21.0746 
  71   0.0000       0.784368        21.3437 
  72   0.0000       0.847656        23.0659 
  73   0.0000       0.848475        23.0882 
  74   0.0000       0.896736        24.4014 
  75   0.0000       0.983294        26.7568 
  76   0.0000       0.983294        26.7568 
  77   0.0000       1.001995        27.2657 
  78   0.0000       1.001995        27.2657 
  79   0.0000       1.061076        28.8734 
  80   0.0000       1.168224        31.7890 
  81   0.0000       1.169023        31.8107 
  82   0.0000       1.362099        37.0646 
  83   0.0000       1.513051        41.1722 
  84   0.0000       1.513051        41.1722 
  85   0.0000       1.904132        51.8141 
  86   0.0000       2.065294        56.1995 
  87   0.0000       2.065294        56.1995 
  88   0.0000       2.076632        56.5080 
  89   0.0000       2.078747        56.5656 
  90   0.0000       2.094545        56.9955 
  91   0.0000       2.094545        56.9955 
  92   0.0000       2.177529        59.2536 
  93   0.0000       2.183901        59.4270 
  94   0.0000       2.205058        60.0027 
  95   0.0000       2.309175        62.8358 
  96   0.0000       2.309175        62.8358 
  97   0.0000       2.311014        62.8859 
  98   0.0000       2.440077        66.3979 
  99   0.0000       2.440077        66.3979 
 100   0.0000       2.467319        67.1392 
 101   0.0000       2.522138        68.6309 
 102   0.0000       2.522138        68.6309 
 103   0.0000       2.553622        69.4876 
 104   0.0000       2.557983        69.6063 
 105   0.0000       2.565091        69.7997 
 106   0.0000       2.565091        69.7997 
 107   0.0000       2.590794        70.4991 
 108   0.0000       2.693451        73.2925 
 109   0.0000       2.693451        73.2925 
 110   0.0000       2.712662        73.8153 
 111   0.0000       2.714298        73.8598 
 112   0.0000       2.721903        74.0668 
 113   0.0000       2.721903        74.0668 
 114   0.0000       2.793764        76.0222 
 115   0.0000       2.800100        76.1946 
 116   0.0000       2.944390        80.1209 
 117   0.0000       3.087527        84.0159 
 118   0.0000       3.277953        89.1976 
 119   0.0000       3.277953        89.1976 
 120   0.0000       3.701835       100.7320 
 121   0.0000       3.702764       100.7573 
 122   0.0000       3.775598       102.7393 
 123   0.0000       4.060426       110.4898 
 124   0.0000       4.060426       110.4898 
 125   0.0000       5.027668       136.8098 
 126   0.0000       6.180199       168.1718 
 127   0.0000       7.228865       196.7074 
 128   0.0000       7.228865       196.7074 
 129   0.0000       7.250954       197.3085 
 130   0.0000       7.251875       197.3336 
 131   0.0000       7.326186       199.3557 
 132   0.0000       7.326186       199.3557 
 133   0.0000       7.626321       207.5227 
 134   0.0000       7.803494       212.3439 
 135   0.0000       7.804312       212.3661 
 136   0.0000       7.816880       212.7081 
 137   0.0000       7.816880       212.7081 
 138   0.0000       7.882190       214.4853 
 139   0.0000       7.889920       214.6956 
 140   0.0000       8.063952       219.4313 
 141   0.0000       8.063952       219.4313 
 142   0.0000       8.244786       224.3520 

                 SPIN DOWN ORBITALS
  NO   OCC          E(Eh)            E(eV) 
   0   1.0000    -234.715142     -6386.9237 
   1   1.0000    -101.005201     -2748.4913 
   2   1.0000     -26.947437      -733.2770 
   3   1.0000     -23.044780      -627.0804 
   4   1.0000     -23.044780      -627.0804 
   5   1.0000     -23.043021      -627.0325 
   6   1.0000      -9.235595      -251.3133 
   7   1.0000      -7.010467      -190.7645 
   8   1.0000      -7.009307      -190.7329 
   9   1.0000      -7.009307      -190.7329 
  10   1.0000      -2.992509       -81.4303 
  11   1.0000      -1.876209       -51.0542 
  12   1.0000      -1.876209       -51.0542 
  13   1.0000      -1.874506       -51.0079 
  14   1.0000      -0.746540       -20.3144 
  15   1.0000      -0.341623        -9.2960 
  16   1.0000      -0.306770        -8.3476 
  17   1.0000      -0.306770        -8.3476 
  18   0.0000      -0.139558        -3.7976 
  19   0.0000      -0.137244        -3.7346 
  20   0.0000      -0.136995        -3.7278 
  21   0.0000      -0.124153        -3.3784 
  22   0.0000      -0.124153        -3.3784 
  23   0.0000      -0.080591        -2.1930 
  24   0.0000      -0.005599        -0.1524 
  25   0.0000      -0.005599        -0.1524 
  26   0.0000       0.004558         0.1240 
  27   0.0000       0.025734         0.7003 
  28   0.0000       0.036092         0.9821 
  29   0.0000       0.036092         0.9821 
  30   0.0000       0.064379         1.7518 
  31   0.0000       0.064611         1.7582 
  32   0.0000       0.064727         1.7613 
  33   0.0000       0.068904         1.8750 
  34   0.0000       0.071194         1.9373 
  35   0.0000       0.071194         1.9373 
  36   0.0000       0.119144         3.2421 
  37   0.0000       0.123007         3.3472 
  38   0.0000       0.123007         3.3472 
  39   0.0000       0.134097         3.6490 
  40   0.0000       0.179024         4.8715 
  41   0.0000       0.179024         4.8715 
  42   0.0000       0.206795         5.6272 
  43   0.0000       0.206924         5.6307 
  44   0.0000       0.210771         5.7354 
  45   0.0000       0.236782         6.4432 
  46   0.0000       0.243749         6.6328 
  47   0.0000       0.243749         6.6328 
  48   0.0000       0.273626         7.4457 
  49   0.0000       0.274502         7.4696 
  50   0.0000       0.323089         8.7917 
  51   0.0000       0.344282         9.3684 
  52   0.0000       0.344282         9.3684 
  53   0.0000       0.402304        10.9473 
  54   0.0000       0.497496        13.5376 
  55   0.0000       0.573668        15.6103 
  56   0.0000       0.573668        15.6103 
  57   0.0000       0.652459        17.7543 
  58   0.0000       0.652459        17.7543 
  59   0.0000       0.669871        18.2281 
  60   0.0000       0.669871        18.2281 
  61   0.0000       0.680865        18.5273 
  62   0.0000       0.683129        18.5889 
  63   0.0000       0.683755        18.6059 
  64   0.0000       0.720127        19.5957 
  65   0.0000       0.720353        19.6018 
  66   0.0000       0.754673        20.5357 
  67   0.0000       0.754673        20.5357 
  68   0.0000       0.789704        21.4889 
  69   0.0000       0.837850        22.7991 
  70   0.0000       0.839312        22.8388 
  71   0.0000       0.839312        22.8388 
  72   0.0000       0.934729        25.4353 
  73   0.0000       0.935027        25.4434 
  74   0.0000       0.935431        25.4544 
  75   0.0000       0.991605        26.9829 
  76   0.0000       0.991605        26.9829 
  77   0.0000       1.038704        28.2646 
  78   0.0000       1.038704        28.2646 
  79   0.0000       1.076571        29.2950 
  80   0.0000       1.191852        32.4319 
  81   0.0000       1.192110        32.4390 
  82   0.0000       1.405950        38.2578 
  83   0.0000       1.552157        42.2363 
  84   0.0000       1.552157        42.2363 
  85   0.0000       1.943150        52.8758 
  86   0.0000       2.140568        58.2478 
  87   0.0000       2.146142        58.3995 
  88   0.0000       2.162375        58.8412 
  89   0.0000       2.162375        58.8412 
  90   0.0000       2.185366        59.4668 
  91   0.0000       2.185366        59.4668 
  92   0.0000       2.234305        60.7985 
  93   0.0000       2.237104        60.8747 
  94   0.0000       2.285034        62.1789 
  95   0.0000       2.318365        63.0859 
  96   0.0000       2.318365        63.0859 
  97   0.0000       2.325618        63.2833 
  98   0.0000       2.489504        67.7428 
  99   0.0000       2.489504        67.7428 
 100   0.0000       2.589020        70.4508 
 101   0.0000       2.621271        71.3284 
 102   0.0000       2.621271        71.3284 
 103   0.0000       2.644920        71.9719 
 104   0.0000       2.647015        72.0289 
 105   0.0000       2.647015        72.0289 
 106   0.0000       2.647927        72.0538 
 107   0.0000       2.663401        72.4748 
 108   0.0000       2.740671        74.5775 
 109   0.0000       2.740671        74.5775 
 110   0.0000       2.757728        75.0416 
 111   0.0000       2.757728        75.0416 
 112   0.0000       2.758515        75.0630 
 113   0.0000       2.763812        75.2071 
 114   0.0000       2.835810        77.1663 
 115   0.0000       2.839290        77.2610 
 116   0.0000       3.020885        82.2025 
 117   0.0000       3.141604        85.4874 
 118   0.0000       3.338983        90.8583 
 119   0.0000       3.338983        90.8583 
 120   0.0000       3.851111       104.7941 
 121   0.0000       3.851693       104.8099 
 122   0.0000       3.856314       104.9356 
 123   0.0000       4.191307       114.0513 
 124   0.0000       4.191307       114.0513 
 125   0.0000       5.136411       139.7689 
 126   0.0000       6.195301       168.5827 
 127   0.0000       7.444511       202.5755 
 128   0.0000       7.444511       202.5755 
 129   0.0000       7.468361       203.2244 
 130   0.0000       7.469041       203.2429 
 131   0.0000       7.538383       205.1298 
 132   0.0000       7.538383       205.1298 
 133   0.0000       7.819599       212.7821 
 134   0.0000       7.952766       216.4058 
 135   0.0000       7.953480       216.4252 
 136   0.0000       7.965715       216.7581 
 137   0.0000       7.965715       216.7581 
 138   0.0000       8.028429       218.4647 
 139   0.0000       8.034799       218.6380 
 140   0.0000       8.207153       223.3280 
 141   0.0000       8.207153       223.3280 
 142   0.0000       8.392040       228.3590 

                    ********************************
                    * MULLIKEN POPULATION ANALYSIS *
                    ********************************

--------------------------------------------
MULLIKEN ATOMIC CHARGES AND SPIN POPULATIONS
--------------------------------------------
   0 Mn:    0.279197    5.759159
   1 Cl:   -0.279197    0.240841
Sum of atomic charges         :   -0.0000000
Sum of atomic spin populations:    6.0000000

-----------------------------------------------------
MULLIKEN REDUCED ORBITAL CHARGES AND SPIN POPULATIONS
-----------------------------------------------------
CHARGE
  0 Mns       :     6.970031  s :     6.970031
      pz      :     4.348564  p :    12.461758
      px      :     4.056597
      py      :     4.056597
      dz2     :     1.091756  d :     5.260131
      dxz     :     1.085362
      dyz     :     1.085362
      dx2y2   :     0.998844
      dxy     :     0.998807
      f0      :     0.006968  f :     0.026995
      f+1     :     0.010018
      f-1     :     0.010018
      f+2     :    -0.000004
      f-2     :    -0.000004
      f+3     :     0.000000
      f-3     :     0.000000
      g0      :     0.000569  g :     0.001888
      g+1     :     0.000659
      g-1     :     0.000659
      g+2     :     0.000000
      g-2     :     0.000000
      g+3     :     0.000000
      g-3     :     0.000000
      g+4     :     0.000000
      g-4     :     0.000000
  1 Cls       :     5.959460  s :     5.959460
      pz      :     3.612734  p :    11.280679
      px      :     3.833972
      py      :     3.833972
      dz2     :     0.009310  d :     0.036392
      dxz     :     0.012723
      dyz     :     0.012723
      dx2y2   :     0.000811
      dxy     :     0.000824
      f0      :     0.000608  f :     0.002666
      f+1     :     0.000668
      f-1     :     0.000668
      f+2     :     0.000348
      f-2     :     0.000373
      f+3     :     0.000000
      f-3     :     0.000000

SPIN
  0 Mns       :     0.807109  s :     0.807109
      pz      :     0.259650  p :     0.297670
      px      :     0.019010
      py      :     0.019010
      dz2     :     0.849125  d :     4.656391
      dxz     :     0.904808
      dyz     :     0.904808
      dx2y2   :     0.998844
      dxy     :     0.998807
      f0      :    -0.000636  f :    -0.001552
      f+1     :    -0.000454
      f-1     :    -0.000454
      f+2     :    -0.000004
      f-2     :    -0.000004
      f+3     :     0.000000
      f-3     :     0.000000
      g0      :    -0.000128  g :    -0.000458
      g+1     :    -0.000165
      g-1     :    -0.000165
      g+2     :     0.000000
      g-2     :     0.000000
      g+3     :     0.000000
      g-3     :     0.000000
      g+4     :     0.000000
      g-4     :     0.000000
  1 Cls       :     0.013443  s :     0.013443
      pz      :     0.063992  p :     0.213259
      px      :     0.074634
      py      :     0.074634
      dz2     :     0.006861  d :     0.013194
      dxz     :     0.002349
      dyz     :     0.002349
      dx2y2   :     0.000811
      dxy     :     0.000824
      f0      :     0.000584  f :     0.000944
      f+1     :    -0.000181
      f-1     :    -0.000181
      f+2     :     0.000348
      f-2     :     0.000373
      f+3     :     0.000000
      f-3     :     0.000000


                     *******************************
                     * LOEWDIN POPULATION ANALYSIS *
                     *******************************

-------------------------------------------
LOEWDIN ATOMIC CHARGES AND SPIN POPULATIONS
-------------------------------------------
   0 Mn:   -0.028205    5.600936
   1 Cl:    0.028205    0.399064

----------------------------------------------------
LOEWDIN REDUCED ORBITAL CHARGES AND SPIN POPULATIONS
----------------------------------------------------
CHARGE
  0 Mns       :     6.666117  s :     6.666117
      pz      :     4.515875  p :    12.661949
      px      :     4.073037
      py      :     4.073037
      dz2     :     1.226852  d :     5.462109
      dxz     :     1.125286
      dyz     :     1.125286
      dx2y2   :     0.992343
      dxy     :     0.992341
      f0      :     0.077324  f :     0.221977
      f+1     :     0.072213
      f-1     :     0.072213
      f+2     :     0.000113
      f-2     :     0.000114
      f+3     :     0.000000
      f-3     :     0.000000
      g0      :     0.006508  g :     0.016052
      g+1     :     0.004757
      g-1     :     0.004757
      g+2     :     0.000015
      g-2     :     0.000015
      g+3     :     0.000000
      g-3     :     0.000000
      g+4     :     0.000000
      g-4     :     0.000000
  1 Cls       :     5.555578  s :     5.555578
      pz      :     3.728458  p :    11.011727
      px      :     3.641635
      py      :     3.641635
      dz2     :     0.152535  d :     0.259809
      dxz     :     0.050347
      dyz     :     0.050347
      dx2y2   :     0.003290
      dxy     :     0.003289
      f0      :     0.070752  f :     0.144681
      f+1     :     0.032725
      f-1     :     0.032725
      f+2     :     0.004238
      f-2     :     0.004240
      f+3     :     0.000000
      f-3     :     0.000000

SPIN
  0 Mns       :     0.668180  s :     0.668180
      pz      :     0.323734  p :     0.392709
      px      :     0.034488
      py      :     0.034488
      dz2     :     0.823345  d :     4.524848
      dxz     :     0.858409
      dyz     :     0.858409
      dx2y2   :     0.992343
      dxy     :     0.992341
      f0      :     0.001823  f :     0.014136
      f+1     :     0.006043
      f-1     :     0.006043
      f+2     :     0.000113
      f-2     :     0.000114
      f+3     :     0.000000
      f-3     :     0.000000
      g0      :     0.000322  g :     0.001063
      g+1     :     0.000355
      g-1     :     0.000355
      g+2     :     0.000015
      g-2     :     0.000015
      g+3     :     0.000000
      g-3     :     0.000000
      g+4     :     0.000000
      g-4     :     0.000000
  1 Cls       :     0.036893  s :     0.036893
      pz      :     0.112305  p :     0.228277
      px      :     0.057986
      py      :     0.057986
      dz2     :     0.028093  d :     0.086496
      dxz     :     0.025912
      dyz     :     0.025912
      dx2y2   :     0.003290
      dxy     :     0.003289
      f0      :     0.005304  f :     0.047397
      f+1     :     0.016807
      f-1     :     0.016807
      f+2     :     0.004238
      f-2     :     0.004240
      f+3     :     0.000000
      f-3     :     0.000000


                      *****************************
                      * MAYER POPULATION ANALYSIS *
                      *****************************

  NA   - Mulliken gross atomic population
  ZA   - Total nuclear charge
  QA   - Mulliken gross atomic charge
  VA   - Mayer's total valence
  BVA  - Mayer's bonded valence
  FA   - Mayer's free valence

  ATOM       NA         ZA         QA         VA         BVA        FA
  0 Mn    24.7208    25.0000     0.2792     6.6982     1.2595     5.4387
  1 Cl    17.2792    17.0000    -0.2792     1.2830     1.2595     0.0235

  Mayer bond orders larger than 0.100000
B(  0-Mn,  1-Cl) :   1.2595 

-------
TIMINGS
-------

Total SCF time: 0 days 0 hours 0 min 2 sec 

Total time                  ....       2.704 sec
Sum of individual times     ....       2.574 sec  ( 95.2%)

Fock matrix formation       ....       2.194 sec  ( 81.1%)
  Split-RI-J                ....       1.836 sec  ( 83.7% of F)
  XC integration            ....       0.288 sec  ( 13.1% of F)
    Basis function eval.    ....       0.036 sec  ( 12.4% of XC)
    Density eval.           ....       0.040 sec  ( 14.0% of XC)
    XC-Functional eval.     ....       0.009 sec  (  3.2% of XC)
    XC-Potential eval.      ....       0.122 sec  ( 42.5% of XC)
Diagonalization             ....       0.076 sec  (  2.8%)
Density matrix formation    ....       0.010 sec  (  0.4%)
Population analysis         ....       0.007 sec  (  0.3%)
Initial guess               ....       0.121 sec  (  4.5%)
Orbital Transformation      ....       0.000 sec  (  0.0%)
Orbital Orthonormalization  ....       0.000 sec  (  0.0%)
DIIS solution               ....       0.025 sec  (  0.9%)
Grid generation             ....       0.140 sec  (  5.2%)


-------------------------------------------------------------------------------
                          DFT DISPERSION CORRECTION                            
                                                                               
                              DFTD3 V3.1  Rev 1                                
                          USING Becke-Johnson damping                          
-------------------------------------------------------------------------------
The TPSS functional is recognized
Active option DFTDOPT                   ...         4   

molecular C6(AA) [au] = 664.307231 


            DFT-D V3
 parameters
 s6 scaling factor         :     1.0000 
 a1 scaling factor         :     0.4535 
 s8 scaling factor         :     1.9435 
 a2 scaling factor         :     4.4752 
 ad hoc parameters k1-k3   :    16.0000     1.3333    -4.0000 

 Edisp/kcal,au: -0.945502441288  -0.001506753889 
 E6   /kcal   :  -0.323274836 
 E8   /kcal   :  -0.622227605 
 % E8         :  65.809201335 

-------------------------   ----------------
Dispersion correction           -0.001506754
-------------------------   ----------------


-------------------------   --------------------
FINAL SINGLE POINT ENERGY     -1611.328963918855
-------------------------   --------------------



           ************************************************************
           *        Program running with 24 parallel MPI-processes    *
           *              working on a common directory               *
           ************************************************************
------------------------------------------------------------------------------
                         ORCA SCF GRADIENT CALCULATION
------------------------------------------------------------------------------

Gradient of the Kohn-Sham DFT energy:
Kohn-Sham wavefunction type      ... UKS
Hartree-Fock exchange scaling    ...    0.000
Number of operators              ...    2
Number of atoms                  ...    2
Basis set dimensions             ...  143
Integral neglect threshold       ... 2.5e-11
Integral primitive cutoff        ... 2.5e-12

Nuclear repulsion gradient       ... done
One Electron Gradient            ... done
Pre-screening matrix             ... done
RI-J gradient                    ... done
Exchange-correlation gradient    ... done
Dispersion correction            ... done

------------------
CARTESIAN GRADIENT
------------------

   1   Mn  :   -0.000000006    0.000000008    0.082225149
   2   Cl  :    0.000000008   -0.000000003   -0.084186721

Difference to translation invariance:
           :    0.0000000026    0.0000000051   -0.0019615715

Norm of the cartesian gradient     ...    0.1176791366
RMS gradient                       ...    0.0480423064
MAX gradient                       ...    0.0841867210

-------
TIMINGS
-------

Total SCF gradient time            ...        4.520 sec

One electron gradient       ....       0.052 sec  (  1.1%)
Prescreening matrices       ....       3.628 sec  ( 80.3%)
RI-J Coulomb gradient       ....       0.262 sec  (  5.8%)
XC gradient                 ....       0.052 sec  (  1.1%)
------------------------------------------------------------------------------
                         ORCA GEOMETRY RELAXATION STEP
------------------------------------------------------------------------------

Reading the OPT-File                    .... done
Getting information on internals        .... done
Copying old internal coords+grads       .... done
Making the new internal coordinates     .... (new redundants).... done
Validating the new internal coordinates .... (new redundants).... done
Calculating the B-matrix                .... done
Calculating the G,G- and P matrices     .... done
Transforming gradient to internals      .... done
Projecting the internal gradient        .... done
Number of atoms                         ....   2
Number of internal coordinates          ....   1
Current Energy                          .... -1611.328963919 Eh
Current gradient norm                   ....     0.117679137 Eh/bohr
Maximum allowed component of the step   ....  0.300
Current trust radius                    ....  0.300
Evaluating the initial hessian          ....  (Almloef) done
Projecting the Hessian                  .... done
Forming the augmented Hessian           .... done
Diagonalizing the augmented Hessian     .... done
Last element of RFO vector              ....  0.998492076
Lowest eigenvalues of augmented Hessian:
 -0.004574574
Length of the computed step             ....  0.054978938
The final length of the internal step   ....  0.054978938
Converting the step to cartesian space:
 Initial RMS(Int)=    0.0549789379
Transforming coordinates:
 Iter   0:  RMS(Cart)=    0.0158710523 RMS(Int)=    0.0549789379
 Iter   1:  RMS(Cart)=    0.0000000000 RMS(Int)=    0.0000000000
done
Storing new coordinates                 .... done

                                .--------------------.
          ----------------------|Geometry convergence|-------------------------
          Item                value                   Tolerance       Converged
          ---------------------------------------------------------------------
          RMS gradient        0.0832059352            0.0001000000      NO
          MAX gradient        0.0832059352            0.0003000000      NO
          RMS step            0.0549789379            0.0020000000      NO
          MAX step            0.0549789379            0.0040000000      NO
          ........................................................
          Max(Bonds)      0.0291      Max(Angles)    0.00
          Max(Dihed)        0.00      Max(Improp)    0.00
          ---------------------------------------------------------------------

The optimization has not yet converged - more geometry cycles are needed


    ---------------------------------------------------------------------------
                         Redundant Internal Coordinates
                            (Angstroem and degrees)

        Definition                    Value    dE/dq     Step     New-Value
    ----------------------------------------------------------------------------
     1. B(Cl  1,Mn  0)                2.0000 -0.083206  0.0291    2.0291   
    ----------------------------------------------------------------------------

         *************************************************************
         *                GEOMETRY OPTIMIZATION CYCLE   2            *
         *************************************************************
---------------------------------
CARTESIAN COORDINATES (ANGSTROEM)
---------------------------------
  Mn     0.000000    0.000000   -0.014547
  Cl     0.000000    0.000000    2.014547

----------------------------
CARTESIAN COORDINATES (A.U.)
----------------------------
  NO LB      ZA    FRAG     MASS         X           Y           Z
   0 Mn   25.0000    0    54.940    0.000000    0.000000   -0.027489
   1 Cl   17.0000    0    35.453    0.000000    0.000000    3.806942

--------------------------------
INTERNAL COORDINATES (ANGSTROEM)
--------------------------------
 Mn     0   0   0     0.000000000000     0.00000000     0.00000000
 Cl     1   0   0     2.029093600852     0.00000000     0.00000000

---------------------------
INTERNAL COORDINATES (A.U.)
---------------------------
 Mn     0   0   0     0.000000000000     0.00000000     0.00000000
 Cl     1   0   0     3.834431205702     0.00000000     0.00000000



           ************************************************************
           *        Program running with 24 parallel MPI-processes    *
           *              working on a common directory               *
           ************************************************************
 One Electron integrals                  ... done
 Pre-screening matrix                    ... done


           ************************************************************
           *        Program running with 24 parallel MPI-processes    *
           *              working on a common directory               *
           ************************************************************

Diagonalization of the overlap matrix:
Smallest eigenvalue                        ... 6.711e-05
Time for diagonalization                   ...    0.005 sec
Threshold for overlap eigenvalues          ... 1.000e-08
Number of eigenvalues below threshold      ... 0
Time for construction of square roots      ...    0.002 sec
Total time needed                          ...    0.007 sec

-------------------
DFT GRID GENERATION
-------------------

General Integration Accuracy     IntAcc      ...  4.340
Radial Grid Type                 RadialGrid  ... Gauss-Chebyshev
Angular Grid (max. acc.)         AngularGrid ... Lebedev-110
Angular grid pruning method      GridPruning ... 3 (G Style)
Weight generation scheme         WeightScheme... Becke
Basis function cutoff            BFCut       ...    1.0000e-11
Integration weight cutoff        WCut        ...    1.0000e-14
Grids for H and He will be reduced by one unit

# of grid points (after initial pruning)     ...   4756 (   0.0 sec)
# of grid points (after weights+screening)   ...   4731 (   0.0 sec)
nearest neighbour list constructed           ...    0.0 sec
Grid point re-assignment to atoms done       ...    0.0 sec
Grid point division into batches done        ...    0.0 sec
Reduced shell lists constructed in    0.0 sec

Total number of grid points                  ...     4731
Total number of batches                      ...       75
Average number of points per batch           ...       63
Average number of grid points per atom       ...     2366
Average number of shells per batch           ...    23.60 (57.56%)
Average number of basis functions per batch  ...    74.80 (52.31%)
Average number of large shells per batch     ...    17.60 (74.58%)
Average number of large basis fcns per batch ...    51.20 (68.45%)
Maximum spatial batch extension              ...  18.98, 28.73, 16.15 au
Average spatial batch extension              ...   0.95,  1.29,  0.86 au

Time for grid setup =    0.021 sec

--------------
SCF ITERATIONS
--------------
ITER       Energy         Delta-E        Max-DP      RMS-DP      [F,P]     Damp
               ***  Starting incremental Fock matrix formation  ***
  0  -1611.3329563464   0.000000000000 0.00143670  0.00003820  0.0103267 0.7000
  1  -1611.3329935141  -0.000037167646 0.00113364  0.00003279  0.0072304 0.7000
                               ***Turning on DIIS***
  2  -1611.3330214108  -0.000027896765 0.00357349  0.00008784  0.0050568 0.0000
  3  -1611.3330860374  -0.000064626527 0.00212055  0.00002552  0.0010500 0.0000
  4  -1611.3330882896  -0.000002252214 0.00059671  0.00001157  0.0004235 0.0000
  5  -1611.3330886451  -0.000000355521 0.00035756  0.00000753  0.0004131 0.0000
  6  -1611.3330891489  -0.000000503794 0.00028049  0.00000340  0.0000854 0.0000
  7  -1611.3330891117   0.000000037235 0.00004057  0.00000058  0.0000289 0.0000
  8  -1611.3330891112   0.000000000450 0.00000996  0.00000012  0.0000025 0.0000
  9  -1611.3330891316  -0.000000020352 0.00000273  0.00000005  0.0000022 0.0000
                            ***DIIS convergence achieved***

               *****************************************************
               *                     SUCCESS                       *
               *           SCF CONVERGED AFTER  10 CYCLES          *
               *****************************************************

Setting up the final grid:

General Integration Accuracy     IntAcc      ...  4.670
Radial Grid Type                 RadialGrid  ... Gauss-Chebyshev
Angular Grid (max. acc.)         AngularGrid ... Lebedev-302
Angular grid pruning method      GridPruning ... 3 (G Style)
Weight generation scheme         WeightScheme... Becke
Basis function cutoff            BFCut       ...    1.0000e-11
Integration weight cutoff        WCut        ...    1.0000e-14
Grids for H and He will be reduced by one unit

# of grid points (after initial pruning)     ...  16402 (   0.0 sec)
# of grid points (after weights+screening)   ...  16373 (   0.0 sec)
nearest neighbour list constructed           ...    0.0 sec
Grid point re-assignment to atoms done       ...    0.0 sec
Grid point division into batches done        ...    0.1 sec
Reduced shell lists constructed in    0.1 sec

Total number of grid points                  ...    16373
Total number of batches                      ...      256
Average number of points per batch           ...       63
Average number of grid points per atom       ...     8186
Average number of shells per batch           ...    15.75 (38.41%)
Average number of basis functions per batch  ...    37.42 (26.17%)
Average number of large shells per batch     ...     8.75 (55.56%)
Average number of large basis fcns per batch ...    21.75 (58.13%)
Maximum spatial batch extension              ...  24.49, 24.19, 18.13 au
Average spatial batch extension              ...   0.85,  0.84,  0.65 au

Final grid set up in    0.1 sec
Final integration                            ... done (   0.1 sec)
Change in XC energy                          ...     0.001482421
Integrated number of electrons               ...    42.000002206
Previous integrated no of electrons          ...    41.999976773
Total Energy       :        -1611.33160670 Eh          -43846.56213 eV
  Last Energy change         ...    1.2277e-08  Tolerance :   1.0000e-08
  Last MAX-Density change    ...    1.5135e-06  Tolerance :   1.0000e-07
             **** THE GBW FILE WAS UPDATED (27_MnCl.gbw) ****
             **** DENSITY FILE WAS UPDATED (27_MnCl.scfp) ****
             **** ENERGY FILE WAS UPDATED (27_MnCl.en.tmp) ****
----------------------
UHF SPIN CONTAMINATION
----------------------

Warning: in a DFT calculation there is little theoretical justification to 
         calculate <S**2> as in Hartree-Fock theory. We will do it anyways
         but you should keep in mind that the values have only limited relevance

Expectation value of <S**2>     :    12.004317
Ideal value S*(S+1) for S=3.0   :    12.000000
Deviation                       :     0.004317

             **** THE GBW FILE WAS UPDATED (27_MnCl.gbw) ****
             **** DENSITY FILE WAS UPDATED (27_MnCl.scfp) ****
Total SCF time: 0 days 0 hours 0 min 2 sec 


-------------------------------------------------------------------------------
                          DFT DISPERSION CORRECTION                            
                                                                               
                              DFTD3 V3.1  Rev 1                                
                          USING Becke-Johnson damping                          
-------------------------------------------------------------------------------
-------------------------   ----------------
Dispersion correction           -0.001506930
-------------------------   ----------------


-------------------------   --------------------
FINAL SINGLE POINT ENERGY     -1611.333113628704
-------------------------   --------------------



           ************************************************************
           *        Program running with 24 parallel MPI-processes    *
           *              working on a common directory               *
           ************************************************************
------------------------------------------------------------------------------
                         ORCA SCF GRADIENT CALCULATION
------------------------------------------------------------------------------

Gradient of the Kohn-Sham DFT energy:
Kohn-Sham wavefunction type      ... UKS
Hartree-Fock exchange scaling    ...    0.000
Number of operators              ...    2
Number of atoms                  ...    2
Basis set dimensions             ...  143
Integral neglect threshold       ... 2.5e-11
Integral primitive cutoff        ... 2.5e-12

Nuclear repulsion gradient       ... done
One Electron Gradient            ... done
Pre-screening matrix             ... done
RI-J gradient                    ... done
Exchange-correlation gradient    ... done
Dispersion correction            ... done

------------------
CARTESIAN GRADIENT
------------------

   1   Mn  :   -0.000000000    0.000000006    0.067118778
   2   Cl  :    0.000000000   -0.000000004   -0.069322019

Difference to translation invariance:
           :    0.0000000002    0.0000000020   -0.0022032411

Norm of the cartesian gradient     ...    0.0964907904
RMS gradient                       ...    0.0393922002
MAX gradient                       ...    0.0693220189

-------
TIMINGS
-------

Total SCF gradient time            ...        4.520 sec

One electron gradient       ....       0.054 sec  (  1.2%)
Prescreening matrices       ....       3.629 sec  ( 80.3%)
RI-J Coulomb gradient       ....       0.257 sec  (  5.7%)
XC gradient                 ....       0.053 sec  (  1.2%)
------------------------------------------------------------------------------
                         ORCA GEOMETRY RELAXATION STEP
------------------------------------------------------------------------------

Reading the OPT-File                    .... done
Getting information on internals        .... done
Copying old internal coords+grads       .... done
Making the new internal coordinates     .... (new redundants).... done
Validating the new internal coordinates .... (new redundants).... done
Calculating the B-matrix                .... done
Calculating the G,G- and P matrices     .... done
Transforming gradient to internals      .... done
Projecting the internal gradient        .... done
Number of atoms                         ....   2
Number of internal coordinates          ....   1
Current Energy                          .... -1611.333113629 Eh
Current gradient norm                   ....     0.096490790 Eh/bohr
Maximum allowed component of the step   ....  0.300
Current trust radius                    ....  0.300
Updating the Hessian (BFGS)             .... done
Forming the augmented Hessian           .... done
Diagonalizing the augmented Hessian     .... done
Last element of RFO vector              ....  0.973196225
Lowest eigenvalues of augmented Hessian:
 -0.016121185
Length of the computed step             ....  0.236310328
The final length of the internal step   ....  0.236310328
Converting the step to cartesian space:
 Initial RMS(Int)=    0.2363103280
Transforming coordinates:
 Iter   0:  RMS(Cart)=    0.0577350269 RMS(Int)=    0.2000000000
 Iter   1:  RMS(Cart)=    0.0104818888 RMS(Int)=    0.0363103280
 Iter   2:  RMS(Cart)=    0.0000000000 RMS(Int)=    0.0000000000
done
Storing new coordinates                 .... done

                                .--------------------.
          ----------------------|Geometry convergence|-------------------------
          Item                value                   Tolerance       Converged
          ---------------------------------------------------------------------
          Energy change      -0.0041497098            0.0000050000      NO
          RMS gradient        0.0682203983            0.0001000000      NO
          MAX gradient        0.0682203983            0.0003000000      NO
          RMS step            0.2363103280            0.0020000000      NO
          MAX step            0.2363103280            0.0040000000      NO
          ........................................................
          Max(Bonds)      0.1251      Max(Angles)    0.00
          Max(Dihed)        0.00      Max(Improp)    0.00
          ---------------------------------------------------------------------

The optimization has not yet converged - more geometry cycles are needed


    ---------------------------------------------------------------------------
                         Redundant Internal Coordinates
                            (Angstroem and degrees)

        Definition                    Value    dE/dq     Step     New-Value
    ----------------------------------------------------------------------------
     1. B(Cl  1,Mn  0)                2.0291 -0.068220  0.1251    2.1541   
    ----------------------------------------------------------------------------

         *************************************************************
         *                GEOMETRY OPTIMIZATION CYCLE   3            *
         *************************************************************
---------------------------------
CARTESIAN COORDINATES (ANGSTROEM)
---------------------------------
  Mn     0.000000    0.000000   -0.077072
  Cl     0.000000    0.000000    2.077072

----------------------------
CARTESIAN COORDINATES (A.U.)
----------------------------
  NO LB      ZA    FRAG     MASS         X           Y           Z
   0 Mn   25.0000    0    54.940    0.000000    0.000000   -0.145645
   1 Cl   17.0000    0    35.453    0.000000    0.000000    3.925097

--------------------------------
INTERNAL COORDINATES (ANGSTROEM)
--------------------------------
 Mn     0   0   0     0.000000000000     0.00000000     0.00000000
 Cl     1   0   0     2.154143640500     0.00000000     0.00000000

---------------------------
INTERNAL COORDINATES (A.U.)
---------------------------
 Mn     0   0   0     0.000000000000     0.00000000     0.00000000
 Cl     1   0   0     4.070741533673     0.00000000     0.00000000



           ************************************************************
           *        Program running with 24 parallel MPI-processes    *
           *              working on a common directory               *
           ************************************************************
 One Electron integrals                  ... done
 Pre-screening matrix                    ... done


           ************************************************************
           *        Program running with 24 parallel MPI-processes    *
           *              working on a common directory               *
           ************************************************************

Diagonalization of the overlap matrix:
Smallest eigenvalue                        ... 7.839e-05
Time for diagonalization                   ...    0.004 sec
Threshold for overlap eigenvalues          ... 1.000e-08
Number of eigenvalues below threshold      ... 0
Time for construction of square roots      ...    0.003 sec
Total time needed                          ...    0.007 sec

-------------------
DFT GRID GENERATION
-------------------

General Integration Accuracy     IntAcc      ...  4.340
Radial Grid Type                 RadialGrid  ... Gauss-Chebyshev
Angular Grid (max. acc.)         AngularGrid ... Lebedev-110
Angular grid pruning method      GridPruning ... 3 (G Style)
Weight generation scheme         WeightScheme... Becke
Basis function cutoff            BFCut       ...    1.0000e-11
Integration weight cutoff        WCut        ...    1.0000e-14
Grids for H and He will be reduced by one unit

# of grid points (after initial pruning)     ...   4756 (   0.0 sec)
# of grid points (after weights+screening)   ...   4731 (   0.0 sec)
nearest neighbour list constructed           ...    0.0 sec
Grid point re-assignment to atoms done       ...    0.0 sec
Grid point division into batches done        ...    0.0 sec
Reduced shell lists constructed in    0.0 sec

Total number of grid points                  ...     4731
Total number of batches                      ...       75
Average number of points per batch           ...       63
Average number of grid points per atom       ...     2366
Average number of shells per batch           ...    23.60 (57.56%)
Average number of basis functions per batch  ...    74.80 (52.31%)
Average number of large shells per batch     ...    17.60 (74.58%)
Average number of large basis fcns per batch ...    51.20 (68.45%)
Maximum spatial batch extension              ...  18.98, 28.73, 16.15 au
Average spatial batch extension              ...   0.95,  1.29,  0.86 au

Time for grid setup =    0.028 sec

--------------
SCF ITERATIONS
--------------
ITER       Energy         Delta-E        Max-DP      RMS-DP      [F,P]     Damp
               ***  Starting incremental Fock matrix formation  ***
  0  -1611.3409725638   0.000000000000 0.00416740  0.00014152  0.0440745 0.7000
  1  -1611.3415018036  -0.000529239865 0.00401446  0.00013012  0.0308648 0.7000
                               ***Turning on DIIS***
  2  -1611.3419009080  -0.000399104376 0.01460439  0.00035424  0.0215900 0.0000
  3  -1611.3428319137  -0.000931005722 0.00814994  0.00009329  0.0037785 0.0000
  4  -1611.3428634383  -0.000031524592 0.00303286  0.00003532  0.0015431 0.0000
  5  -1611.3428729584  -0.000009520086 0.00127560  0.00002954  0.0006750 0.0000
  6  -1611.3428763321  -0.000003373661 0.00123462  0.00001614  0.0002188 0.0000
  7  -1611.3428763917  -0.000000059584 0.00019375  0.00000308  0.0001159 0.0000
  8  -1611.3428764381  -0.000000046468 0.00009247  0.00000149  0.0000355 0.0000
  9  -1611.3428764717  -0.000000033605 0.00001353  0.00000026  0.0000198 0.0000
 10  -1611.3428764763  -0.000000004521 0.00000529  0.00000009  0.0000036 0.0000
                 **** Energy Check signals convergence ****

               *****************************************************
               *                     SUCCESS                       *
               *           SCF CONVERGED AFTER  11 CYCLES          *
               *****************************************************

Setting up the final grid:

General Integration Accuracy     IntAcc      ...  4.670
Radial Grid Type                 RadialGrid  ... Gauss-Chebyshev
Angular Grid (max. acc.)         AngularGrid ... Lebedev-302
Angular grid pruning method      GridPruning ... 3 (G Style)
Weight generation scheme         WeightScheme... Becke
Basis function cutoff            BFCut       ...    1.0000e-11
Integration weight cutoff        WCut        ...    1.0000e-14
Grids for H and He will be reduced by one unit

# of grid points (after initial pruning)     ...  16402 (   0.0 sec)
# of grid points (after weights+screening)   ...  16375 (   0.0 sec)
nearest neighbour list constructed           ...    0.0 sec
Grid point re-assignment to atoms done       ...    0.0 sec
Grid point division into batches done        ...    0.1 sec
Reduced shell lists constructed in    0.1 sec

Total number of grid points                  ...    16375
Total number of batches                      ...      257
Average number of points per batch           ...       63
Average number of grid points per atom       ...     8188
Average number of shells per batch           ...    15.75 (38.41%)
Average number of basis functions per batch  ...    37.42 (26.17%)
Average number of large shells per batch     ...     8.92 (56.61%)
Average number of large basis fcns per batch ...    22.25 (59.47%)
Maximum spatial batch extension              ...  24.49, 24.19, 18.13 au
Average spatial batch extension              ...   0.85,  0.83,  0.66 au

Final grid set up in    0.1 sec
Final integration                            ... done (   0.1 sec)
Change in XC energy                          ...     0.001293762
Integrated number of electrons               ...    42.000005521
Previous integrated no of electrons          ...    41.999992901
Total Energy       :        -1611.34158271 Eh          -43846.83360 eV
  Last Energy change         ...    3.0748e-09  Tolerance :   1.0000e-08
  Last MAX-Density change    ...    3.3747e-06  Tolerance :   1.0000e-07
             **** THE GBW FILE WAS UPDATED (27_MnCl.gbw) ****
             **** DENSITY FILE WAS UPDATED (27_MnCl.scfp) ****
             **** ENERGY FILE WAS UPDATED (27_MnCl.en.tmp) ****
----------------------
UHF SPIN CONTAMINATION
----------------------

Warning: in a DFT calculation there is little theoretical justification to 
         calculate <S**2> as in Hartree-Fock theory. We will do it anyways
         but you should keep in mind that the values have only limited relevance

Expectation value of <S**2>     :    12.004221
Ideal value S*(S+1) for S=3.0   :    12.000000
Deviation                       :     0.004221

             **** THE GBW FILE WAS UPDATED (27_MnCl.gbw) ****
             **** DENSITY FILE WAS UPDATED (27_MnCl.scfp) ****
Total SCF time: 0 days 0 hours 0 min 2 sec 


-------------------------------------------------------------------------------
                          DFT DISPERSION CORRECTION                            
                                                                               
                              DFTD3 V3.1  Rev 1                                
                          USING Becke-Johnson damping                          
-------------------------------------------------------------------------------
-------------------------   ----------------
Dispersion correction           -0.001511811
-------------------------   ----------------


-------------------------   --------------------
FINAL SINGLE POINT ENERGY     -1611.343094522498
-------------------------   --------------------



           ************************************************************
           *        Program running with 24 parallel MPI-processes    *
           *              working on a common directory               *
           ************************************************************
------------------------------------------------------------------------------
                         ORCA SCF GRADIENT CALCULATION
------------------------------------------------------------------------------

Gradient of the Kohn-Sham DFT energy:
Kohn-Sham wavefunction type      ... UKS
Hartree-Fock exchange scaling    ...    0.000
Number of operators              ...    2
Number of atoms                  ...    2
Basis set dimensions             ...  143
Integral neglect threshold       ... 2.5e-11
Integral primitive cutoff        ... 2.5e-12

Nuclear repulsion gradient       ... done
One Electron Gradient            ... done
Pre-screening matrix             ... done
RI-J gradient                    ... done
Exchange-correlation gradient    ... done
Dispersion correction            ... done

------------------
CARTESIAN GRADIENT
------------------

   1   Mn  :   -0.000000001    0.000000000    0.018838145
   2   Cl  :   -0.000000003   -0.000000003   -0.020542255

Difference to translation invariance:
           :   -0.0000000037   -0.0000000028   -0.0017041108

Norm of the cartesian gradient     ...    0.0278722075
RMS gradient                       ...    0.0113787811
MAX gradient                       ...    0.0205422554

-------
TIMINGS
-------

Total SCF gradient time            ...        4.507 sec

One electron gradient       ....       0.063 sec  (  1.4%)
Prescreening matrices       ....       3.615 sec  ( 80.2%)
RI-J Coulomb gradient       ....       0.254 sec  (  5.6%)
XC gradient                 ....       0.048 sec  (  1.1%)
------------------------------------------------------------------------------
                         ORCA GEOMETRY RELAXATION STEP
------------------------------------------------------------------------------

Reading the OPT-File                    .... done
Getting information on internals        .... done
Copying old internal coords+grads       .... done
Making the new internal coordinates     .... (new redundants).... done
Validating the new internal coordinates .... (new redundants).... done
Calculating the B-matrix                .... done
Calculating the G,G- and P matrices     .... done
Transforming gradient to internals      .... done
[...]
 113   0.0000       2.765285        75.2472 
 114   0.0000       2.765285        75.2472 
 115   0.0000       2.811669        76.5094 
 116   0.0000       2.813037        76.5466 
 117   0.0000       2.975797        80.9755 
 118   0.0000       3.041862        82.7733 
 119   0.0000       3.041862        82.7733 
 120   0.0000       3.440148        93.6112 
 121   0.0000       3.679499       100.1243 
 122   0.0000       3.679954       100.1366 
 123   0.0000       3.911652       106.4415 
 124   0.0000       3.911652       106.4415 
 125   0.0000       4.754791       129.3844 
 126   0.0000       5.923188       161.1781 
 127   0.0000       7.213028       196.2765 
 128   0.0000       7.213028       196.2765 
 129   0.0000       7.234318       196.8558 
 130   0.0000       7.234522       196.8614 
 131   0.0000       7.279844       198.0946 
 132   0.0000       7.279844       198.0946 
 133   0.0000       7.413874       201.7418 
 134   0.0000       7.789651       211.9672 
 135   0.0000       7.790045       211.9779 
 136   0.0000       7.798992       212.2214 
 137   0.0000       7.798992       212.2214 
 138   0.0000       7.838342       213.2921 
 139   0.0000       7.841685       213.3831 
 140   0.0000       7.961603       216.6462 
 141   0.0000       7.961603       216.6462 
 142   0.0000       8.082242       219.9290 

                 SPIN DOWN ORBITALS
  NO   OCC          E(Eh)            E(eV) 
   0   1.0000    -234.733843     -6387.4326 
   1   1.0000    -100.988661     -2748.0412 
   2   1.0000     -26.962430      -733.6850 
   3   1.0000     -23.060127      -627.4980 
   4   1.0000     -23.060127      -627.4980 
   5   1.0000     -23.058245      -627.4468 
   6   1.0000      -9.216143      -250.7840 
   7   1.0000      -6.991721      -190.2544 
   8   1.0000      -6.989959      -190.2065 
   9   1.0000      -6.989959      -190.2065 
  10   1.0000      -3.003213       -81.7216 
  11   1.0000      -1.887546       -51.3627 
  12   1.0000      -1.887546       -51.3627 
  13   1.0000      -1.881330       -51.1936 
  14   1.0000      -0.718291       -19.5457 
  15   1.0000      -0.316961        -8.6250 
  16   1.0000      -0.277396        -7.5483 
  17   1.0000      -0.277396        -7.5483 
  18   0.0000      -0.147491        -4.0134 
  19   0.0000      -0.147151        -4.0042 
  20   0.0000      -0.146122        -3.9762 
  21   0.0000      -0.136840        -3.7236 
  22   0.0000      -0.136840        -3.7236 
  23   0.0000      -0.103471        -2.8156 
  24   0.0000      -0.016171        -0.4400 
  25   0.0000      -0.016171        -0.4400 
  26   0.0000       0.004357         0.1186 
  27   0.0000       0.021025         0.5721 
  28   0.0000       0.033698         0.9170 
  29   0.0000       0.033698         0.9170 
  30   0.0000       0.060789         1.6542 
  31   0.0000       0.061949         1.6857 
  32   0.0000       0.062171         1.6918 
  33   0.0000       0.065330         1.7777 
  34   0.0000       0.069386         1.8881 
  35   0.0000       0.069386         1.8881 
  36   0.0000       0.111257         3.0275 
  37   0.0000       0.122318         3.3284 
  38   0.0000       0.122318         3.3284 
  39   0.0000       0.123875         3.3708 
  40   0.0000       0.174273         4.7422 
  41   0.0000       0.174273         4.7422 
  42   0.0000       0.191506         5.2111 
  43   0.0000       0.213046         5.7973 
  44   0.0000       0.213472         5.8089 
  45   0.0000       0.229797         6.2531 
  46   0.0000       0.229797         6.2531 
  47   0.0000       0.235088         6.3971 
  48   0.0000       0.266109         7.2412 
  49   0.0000       0.266602         7.2546 
  50   0.0000       0.309356         8.4180 
  51   0.0000       0.342431         9.3180 
  52   0.0000       0.342431         9.3180 
  53   0.0000       0.373824        10.1723 
  54   0.0000       0.479501        13.0479 
  55   0.0000       0.562430        15.3045 
  56   0.0000       0.562430        15.3045 
  57   0.0000       0.649401        17.6711 
  58   0.0000       0.649401        17.6711 
  59   0.0000       0.656895        17.8750 
  60   0.0000       0.674281        18.3481 
  61   0.0000       0.674281        18.3481 
  62   0.0000       0.676066        18.3967 
  63   0.0000       0.676091        18.3974 
  64   0.0000       0.720244        19.5988 
  65   0.0000       0.721460        19.6319 
  66   0.0000       0.750733        20.4285 
  67   0.0000       0.750733        20.4285 
  68   0.0000       0.771769        21.0009 
  69   0.0000       0.834939        22.7198 
  70   0.0000       0.854167        23.2431 
  71   0.0000       0.854167        23.2431 
  72   0.0000       0.885963        24.1083 
  73   0.0000       0.933210        25.3939 
  74   0.0000       0.933573        25.4038 
  75   0.0000       0.949528        25.8380 
  76   0.0000       0.949528        25.8380 
  77   0.0000       0.997328        27.1387 
  78   0.0000       0.997328        27.1387 
  79   0.0000       1.005812        27.3695 
  80   0.0000       1.141843        31.0711 
  81   0.0000       1.142320        31.0841 
  82   0.0000       1.304064        35.4854 
  83   0.0000       1.480159        40.2772 
  84   0.0000       1.480159        40.2772 
  85   0.0000       1.802993        49.0619 
  86   0.0000       2.152644        58.5764 
  87   0.0000       2.152644        58.5764 
  88   0.0000       2.165851        58.9358 
  89   0.0000       2.169838        59.0443 
  90   0.0000       2.172961        59.1293 
  91   0.0000       2.172961        59.1293 
  92   0.0000       2.216477        60.3134 
  93   0.0000       2.221551        60.4515 
  94   0.0000       2.224696        60.5371 
  95   0.0000       2.345195        63.8160 
  96   0.0000       2.345195        63.8160 
  97   0.0000       2.359805        64.2136 
  98   0.0000       2.399413        65.2913 
  99   0.0000       2.399413        65.2913 
 100   0.0000       2.581218        70.2385 
 101   0.0000       2.633295        71.6556 
 102   0.0000       2.635708        71.7213 
 103   0.0000       2.635766        71.7228 
 104   0.0000       2.635766        71.7228 
 105   0.0000       2.648133        72.0594 
 106   0.0000       2.648133        72.0594 
 107   0.0000       2.667387        72.5833 
 108   0.0000       2.708657        73.7063 
 109   0.0000       2.709856        73.7389 
 110   0.0000       2.757160        75.0261 
 111   0.0000       2.757160        75.0261 
 112   0.0000       2.784000        75.7565 
 113   0.0000       2.802030        76.2471 
 114   0.0000       2.802030        76.2471 
 115   0.0000       2.830745        77.0285 
 116   0.0000       2.831959        77.0615 
 117   0.0000       3.012468        81.9734 
 118   0.0000       3.097331        84.2827 
 119   0.0000       3.097331        84.2827 
 120   0.0000       3.533277        96.1454 
 121   0.0000       3.831097       104.2495 
 122   0.0000       3.831258       104.2538 
 123   0.0000       4.049575       110.1945 
 124   0.0000       4.049575       110.1945 
 125   0.0000       4.860410       132.2585 
 126   0.0000       5.943599       161.7335 
 127   0.0000       7.433183       202.2672 
 128   0.0000       7.433183       202.2672 
 129   0.0000       7.455776       202.8820 
 130   0.0000       7.455843       202.8838 
 131   0.0000       7.498875       204.0548 
 132   0.0000       7.498875       204.0548 
 133   0.0000       7.626939       207.5396 
 134   0.0000       7.941026       216.0863 
 135   0.0000       7.941379       216.0959 
 136   0.0000       7.950262       216.3376 
 137   0.0000       7.950262       216.3376 
 138   0.0000       7.987448       217.3495 
 139   0.0000       7.990023       217.4196 
 140   0.0000       8.108148       220.6339 
 141   0.0000       8.108148       220.6339 
 142   0.0000       8.228453       223.9076 

                    ********************************
                    * MULLIKEN POPULATION ANALYSIS *
                    ********************************

--------------------------------------------
MULLIKEN ATOMIC CHARGES AND SPIN POPULATIONS
--------------------------------------------
   0 Mn:    0.424700    5.838349
   1 Cl:   -0.424700    0.161651
Sum of atomic charges         :   -0.0000000
Sum of atomic spin populations:    6.0000000

-----------------------------------------------------
MULLIKEN REDUCED ORBITAL CHARGES AND SPIN POPULATIONS
-----------------------------------------------------
CHARGE
  0 Mns       :     6.982543  s :     6.982543
      pz      :     4.277241  p :    12.365602
      px      :     4.044181
      py      :     4.044181
      dz2     :     1.080040  d :     5.206953
      dxz     :     1.063871
      dyz     :     1.063871
      dx2y2   :     0.999606
      dxy     :     0.999565
      f0      :     0.006459  f :     0.019256
      f+1     :     0.006393
      f-1     :     0.006393
      f+2     :     0.000005
      f-2     :     0.000006
      f+3     :     0.000000
      f-3     :     0.000000
      g0      :     0.000321  g :     0.000946
      g+1     :     0.000311
      g-1     :     0.000311
      g+2     :     0.000001
      g-2     :     0.000001
      g+3     :     0.000000
      g-3     :     0.000000
      g+4     :     0.000000
      g-4     :     0.000000
  1 Cls       :     5.968297  s :     5.968297
      pz      :     3.677813  p :    11.430313
      px      :     3.876250
      py      :     3.876250
      dz2     :     0.007355  d :     0.024085
      dxz     :     0.008116
      dyz     :     0.008116
      dx2y2   :     0.000237
      dxy     :     0.000260
      f0      :    -0.000069  f :     0.002006
      f+1     :     0.000878
      f-1     :     0.000878
      f+2     :     0.000150
      f-2     :     0.000168
      f+3     :     0.000000
      f-3     :     0.000000

SPIN
  0 Mns       :     0.832777  s :     0.832777
      pz      :     0.210034  p :     0.239913
      px      :     0.014939
      py      :     0.014939
      dz2     :     0.897891  d :     4.766469
      dxz     :     0.934703
      dyz     :     0.934703
      dx2y2   :     0.999606
      dxy     :     0.999565
      f0      :    -0.000496  f :    -0.000612
      f+1     :    -0.000064
      f-1     :    -0.000064
      f+2     :     0.000005
      f-2     :     0.000006
      f+3     :     0.000000
      f-3     :     0.000000
      g0      :    -0.000087  g :    -0.000198
      g+1     :    -0.000056
      g-1     :    -0.000056
      g+2     :     0.000001
      g-2     :     0.000001
      g+3     :     0.000000
      g-3     :     0.000000
      g+4     :     0.000000
      g-4     :     0.000000
  1 Cls       :     0.002683  s :     0.002683
      pz      :     0.054928  p :     0.154796
      px      :     0.049934
      py      :     0.049934
      dz2     :     0.002224  d :     0.003909
      dxz     :     0.000594
      dyz     :     0.000594
      dx2y2   :     0.000237
      dxy     :     0.000260
      f0      :     0.000045  f :     0.000262
      f+1     :    -0.000051
      f-1     :    -0.000051
      f+2     :     0.000150
      f-2     :     0.000168
      f+3     :    -0.000000
      f-3     :    -0.000000


                     *******************************
                     * LOEWDIN POPULATION ANALYSIS *
                     *******************************

-------------------------------------------
LOEWDIN ATOMIC CHARGES AND SPIN POPULATIONS
-------------------------------------------
   0 Mn:    0.086086    5.696117
   1 Cl:   -0.086086    0.303883

----------------------------------------------------
LOEWDIN REDUCED ORBITAL CHARGES AND SPIN POPULATIONS
----------------------------------------------------
CHARGE
  0 Mns       :     6.763968  s :     6.763968
      pz      :     4.447618  p :    12.578530
      px      :     4.065456
      py      :     4.065456
      dz2     :     1.197889  d :     5.404907
      dxz     :     1.106256
      dyz     :     1.106256
      dx2y2   :     0.997257
      dxy     :     0.997250
      f0      :     0.065235  f :     0.158769
      f+1     :     0.046707
      f-1     :     0.046707
      f+2     :     0.000058
      f-2     :     0.000063
      f+3     :     0.000000
      f-3     :     0.000000
      g0      :     0.003822  g :     0.007741
      g+1     :     0.001953
      g-1     :     0.001953
      g+2     :     0.000006
      g-2     :     0.000006
      g+3     :     0.000000
      g-3     :     0.000000
      g+4     :     0.000000
      g-4     :     0.000000
  1 Cls       :     5.650775  s :     5.650775
      pz      :     3.724958  p :    11.196578
      px      :     3.735810
      py      :     3.735810
      dz2     :     0.107665  d :     0.164576
      dxz     :     0.027221
      dyz     :     0.027221
      dx2y2   :     0.001234
      dxy     :     0.001236
      f0      :     0.038070  f :     0.074156
      f+1     :     0.016598
      f-1     :     0.016598
      f+2     :     0.001445
      f-2     :     0.001445
      f+3     :     0.000000
      f-3     :     0.000000

SPIN
  0 Mns       :     0.685384  s :     0.685384
      pz      :     0.274789  p :     0.318415
      px      :     0.021813
      py      :     0.021813
      dz2     :     0.877508  d :     4.681991
      dxz     :     0.904989
      dyz     :     0.904989
      dx2y2   :     0.997257
      dxy     :     0.997250
      f0      :     0.002954  f :     0.009665
      f+1     :     0.003295
      f-1     :     0.003295
      f+2     :     0.000058
      f-2     :     0.000063
      f+3     :     0.000000
      f-3     :     0.000000
      g0      :     0.000295  g :     0.000662
      g+1     :     0.000177
      g-1     :     0.000177
      g+2     :     0.000006
      g-2     :     0.000006
      g+3     :     0.000000
      g-3     :     0.000000
      g+4     :     0.000000
      g-4     :     0.000000
  1 Cls       :     0.029272  s :     0.029272
      pz      :     0.103186  p :     0.192295
      px      :     0.044555
      py      :     0.044555
      dz2     :     0.021935  d :     0.052946
      dxz     :     0.014271
      dyz     :     0.014271
      dx2y2   :     0.001234
      dxy     :     0.001236
      f0      :     0.004679  f :     0.029370
      f+1     :     0.010900
      f-1     :     0.010900
      f+2     :     0.001445
      f-2     :     0.001445
      f+3     :    -0.000000
      f-3     :    -0.000000


                      *****************************
                      * MAYER POPULATION ANALYSIS *
                      *****************************

  NA   - Mulliken gross atomic population
  ZA   - Total nuclear charge
  QA   - Mulliken gross atomic charge
  VA   - Mayer's total valence
  BVA  - Mayer's bonded valence
  FA   - Mayer's free valence

  ATOM       NA         ZA         QA         VA         BVA        FA
  0 Mn    24.5753    25.0000     0.4247     6.5874     0.9929     5.5946
  1 Cl    17.4247    17.0000    -0.4247     1.0072     0.9929     0.0144

  Mayer bond orders larger than 0.100000
B(  0-Mn,  1-Cl) :   0.9929 

-------
TIMINGS
-------

Total SCF time: 0 days 0 hours 0 min 1 sec 

Total time                  ....       1.636 sec
Sum of individual times     ....       1.471 sec  ( 89.9%)

Fock matrix formation       ....       1.269 sec  ( 77.5%)
  Split-RI-J                ....       0.948 sec  ( 74.7% of F)
  XC integration            ....       0.149 sec  ( 11.7% of F)
    Basis function eval.    ....       0.019 sec  ( 12.6% of XC)
    Density eval.           ....       0.024 sec  ( 16.1% of XC)
    XC-Functional eval.     ....       0.005 sec  (  3.3% of XC)
    XC-Potential eval.      ....       0.061 sec  ( 41.3% of XC)
Diagonalization             ....       0.036 sec  (  2.2%)
Density matrix formation    ....       0.005 sec  (  0.3%)
Population analysis         ....       0.007 sec  (  0.5%)
Initial guess               ....       0.013 sec  (  0.8%)
Orbital Transformation      ....       0.000 sec  (  0.0%)
Orbital Orthonormalization  ....       0.008 sec  (  0.5%)
DIIS solution               ....       0.009 sec  (  0.6%)
Grid generation             ....       0.132 sec  (  8.1%)


-------------------------------------------------------------------------------
                          DFT DISPERSION CORRECTION                            
                                                                               
                              DFTD3 V3.1  Rev 1                                
                          USING Becke-Johnson damping                          
-------------------------------------------------------------------------------
The TPSS functional is recognized
Active option DFTDOPT                   ...         4   

molecular C6(AA) [au] = 679.521016 


            DFT-D V3
 parameters
 s6 scaling factor         :     1.0000 
 a1 scaling factor         :     0.4535 
 s8 scaling factor         :     1.9435 
 a2 scaling factor         :     4.4752 
 ad hoc parameters k1-k3   :    16.0000     1.3333    -4.0000 

 Edisp/kcal,au: -0.955346018905  -0.001522440627 
 E6   /kcal   :  -0.325308076 
 E8   /kcal   :  -0.630037943 
 % E8         :  65.948664725 

-------------------------   ----------------
Dispersion correction           -0.001522441
-------------------------   ----------------


-------------------------   --------------------
FINAL SINGLE POINT ENERGY     -1611.344474994861
-------------------------   --------------------

                                *** OPTIMIZATION RUN DONE ***

                            ***************************************
                            *     ORCA property calculations      *
                            ***************************************

                                    ---------------------
                                    Active property flags
                                    ---------------------
   (+) Dipole Moment


------------------------------------------------------------------------------
                       ORCA ELECTRIC PROPERTIES CALCULATION
------------------------------------------------------------------------------

Dipole Moment Calculation                       ... on
Quadrupole Moment Calculation                   ... off
Polarizability Calculation                      ... off
GBWName                                         ... 27_MnCl.gbw
Electron density file                           ... 27_MnCl.scfp
The origin for moment calculation is the CENTER OF MASS  = ( 0.000000,  0.000000  1.435138)

-------------
DIPOLE MOMENT
-------------
                                X             Y             Z
Electronic contribution:     -0.00000      -0.00000      -3.15361
Nuclear contribution   :      0.00000       0.00000       2.22337
                        -----------------------------------------
Total Dipole Moment    :     -0.00000      -0.00000      -0.93024
                        -----------------------------------------
Magnitude (a.u.)       :      0.93024
Magnitude (Debye)      :      2.36449



--------------------
Rotational spectrum 
--------------------
 
Rotational constants in cm-1:     0.000000     0.157077     0.157077 
Rotational constants in MHz :     0.000000  4709.038991  4709.038991 

 Dipole components along the rotational axes: 
x,y,z [a.u.] :    -0.930244    -0.000000    -0.000000 
x,y,z [Debye]:    -2.364493    -0.000000    -0.000000 

 

Timings for individual modules:

Sum of individual times         ...       69.509 sec (=   1.158 min)
GTO integral calculation        ...       20.968 sec (=   0.349 min)  30.2 %
SCF iterations                  ...       18.826 sec (=   0.314 min)  27.1 %
SCF Gradient evaluation         ...       29.519 sec (=   0.492 min)  42.5 %
Geometry relaxation             ...        0.196 sec (=   0.003 min)   0.3 %
                             ****ORCA TERMINATED NORMALLY****
TOTAL RUN TIME: 0 days 0 hours 1 minutes 10 seconds 440 msec
