
                                 *****************
                                 * O   R   C   A *
                                 *****************

           --- An Ab Initio, DFT and Semiempirical electronic structure package ---

                  #######################################################
                  #                        -***-                        #
                  #          Department of theory and spectroscopy      #
                  #               Directorship: Frank Neese             #
                  #        Max Planck Institute fuer Kohlenforschung    #
                  #                Kaiser Wilhelm Platz 1               #
                  #                 D-45470 Muelheim/Ruhr               #
                  #                      Germany                        #
                  #                                                     #
                  #                  All rights reserved                #
                  #                        -***-                        #
                  #######################################################


                         Program Version 4.2.0 -  RELEASE  -


 With contributions from (in alphabetic order):
   Daniel Aravena         : Magnetic Suceptibility
   Michael Atanasov       : Ab Initio Ligand Field Theory (pilot matlab implementation)
   Alexander A. Auer      : GIAO ZORA, VPT2
   Ute Becker             : Parallelization
   Giovanni Bistoni       : ED, misc. LED, open-shell LED, HFLED
   Martin Brehm           : Molecular dynamics
   Dmytro Bykov           : SCF Hessian
   Vijay G. Chilkuri      : MRCI spin determinant printing, contributions to CSF-ICE
   Dipayan Datta          : RHF DLPNO-CCSD density
   Achintya Kumar Dutta   : EOM-CC, STEOM-CC
   Dmitry Ganyushin       : Spin-Orbit,Spin-Spin,Magnetic field MRCI
   Miquel Garcia          : C-PCM Hessian, Gaussian charge scheme
   Yang Guo               : DLPNO-NEVPT2, CIM, IAO-localization
   Andreas Hansen         : Spin unrestricted coupled pair/coupled cluster methods
   Benjamin Helmich-Paris : CASSCF linear response (MC-RPA)
   Lee Huntington         : MR-EOM, pCC
   Robert Izsak           : Overlap fitted RIJCOSX, COSX-SCS-MP3, EOM
   Christian Kollmar      : KDIIS, OOCD, Brueckner-CCSD(T), CCSD density
   Simone Kossmann        : Meta GGA functionals, TD-DFT gradient, OOMP2, MP2 Hessian
   Martin Krupicka        : AUTO-CI
   Lucas Lang             : DCDCAS
   Dagmar Lenk            : GEPOL surface, SMD
   Dimitrios Liakos       : Extrapolation schemes; Compound Job, initial MDCI parallelization
   Dimitrios Manganas     : Further ROCIS development; embedding schemes
   Dimitrios Pantazis     : SARC Basis sets
   Taras Petrenko         : DFT Hessian,TD-DFT gradient, ASA, ECA, R-Raman, ABS, FL, XAS/XES, NRVS
   Peter Pinski           : DLPNO-MP2, DLPNO-MP2 Gradient
   Christoph Reimann      : Effective Core Potentials
   Marius Retegan         : Local ZFS, SOC
   Christoph Riplinger    : Optimizer, TS searches, QM/MM, DLPNO-CCSD(T), (RO)-DLPNO pert. Triples
   Tobias Risthaus        : Range-separated hybrids, TD-DFT gradient, RPA, STAB
   Michael Roemelt        : Original ROCIS implementation
   Masaaki Saitow         : Open-shell DLPNO-CCSD energy and density
   Barbara Sandhoefer     : DKH picture change effects
   Avijit Sen             : IP-ROCIS
   Kantharuban Sivalingam : CASSCF convergence, NEVPT2, FIC-MRCI
   Bernardo de Souza      : ESD, SOC TD-DFT
   Georgi Stoychev        : AutoAux, RI-MP2 NMR
   Willem Van den Heuvel  : Paramagnetic NMR
   Boris Wezisla          : Elementary symmetry handling
   Frank Wennmohs         : Technical directorship


 We gratefully acknowledge several colleagues who have allowed us to
 interface, adapt or use parts of their codes:
   Stefan Grimme, W. Hujo, H. Kruse,             : VdW corrections, initial TS optimization,
                  C. Bannwarth                     DFT functionals, gCP, sTDA/sTD-DF
   Ed Valeev, F. Pavosevic, A. Kumar             : LibInt (2-el integral package), F12 methods
   Garnet Chan, S. Sharma, J. Yang, R. Olivares  : DMRG
   Ulf Ekstrom                                   : XCFun DFT Library
   Mihaly Kallay                                 : mrcc  (arbitrary order and MRCC methods)
   Andreas Klamt, Michael Diedenhofen            : otool_cosmo (COSMO solvation model)
   Jiri Pittner, Ondrej Demel                    : Mk-CCSD
   Frank Weinhold                                : gennbo (NPA and NBO analysis)
   Christopher J. Cramer and Donald G. Truhlar   : smd solvation model
   Lars Goerigk                                  : TD-DFT with DH, B97 family of functionals
   V. Asgeirsson, H. Jonsson                     : NEB implementation
   FAccTs GmbH                                   : IRC, NEB, NEB-TS, Multilevel, MM, QM/MM, CI optimization
   S Lehtola, MJT Oliveira, MAL Marques          : LibXC Library


 Your calculation uses the libint2 library for the computation of 2-el integrals
 For citations please refer to: http://libint.valeyev.net

 Your ORCA version has been built with support for libXC version: 4.2.3
 For citations please refer to: https://tddft.org/programs/libxc/

 This ORCA versions uses:
   CBLAS   interface :  Fast vector & matrix operations
   LAPACKE interface :  Fast linear algebra routines
   SCALAPACK package :  Parallel linear algebra routines


Your calculation utilizes the atom-pairwise dispersion correction
with the Becke-Johnson damping scheme (D3BJ)
Cite in your paper:
S.Grimme, S.Ehrlich, L.Goerigk, J Comput Chem, (2011), 32, 1456–1465 
S.Grimme, J.Antony, S.Ehrlich and H.Krieg, J.Chem.Phys., 132, (2010), 154104 
   

----- Orbital basis set information -----
Your calculation utilizes the basis: aug-cc-pVTZ 
    H, B-Ne : Obtained from the ccRepo (grant-hill.group.shef.ac.uk/ccrepo) Feb. 2017
              R. A. Kendall, T. H. Dunning, Jr., R. J. Harrison, J. Chem. Phys. 96, 6796 (1992)
         He : Obtained from the ccRepo (grant-hill.group.shef.ac.uk/ccrepo) Feb. 2017
              D. E. Woon, T. H. Dunning, Jr., J. Chem. Phys. 100, 2975 (1994)
  Li-Be, Na : Obtained from the ccRepo (grant-hill.group.shef.ac.uk/ccrepo) Feb. 2017
              B. P. Prascher, D. E. Woon, K. A. Peterson, T. H. Dunning, Jr., A. K. Wilson, Theor. Chem. Acc. 128, 69 (2011)
         Mg : Obtained from the Peterson Research Group Website (tyr0.chem.wsu.edu/~kipeters) Feb. 2017
              B. P. Prascher, D. E. Woon, K. A. Peterson, T. H. Dunning, Jr., A. K. Wilson, Theor. Chem. Acc. 128, 69 (2011)
      Al-Ar : Obtained from the ccRepo (grant-hill.group.shef.ac.uk/ccrepo) Feb. 2017
              D. E. Woon, T. H. Dunning, Jr., J. Chem. Phys. 98, 1358 (1993)
      Sc-Zn : Obtained from the ccRepo (grant-hill.group.shef.ac.uk/ccrepo) Feb. 2017
              N. B. Balabanov, K. A. Peterson, J. Chem. Phys. 123, 064107 (2005)
              N. B. Balabanov, K. A. Peterson, J. Chem. Phys. 125, 074110 (2006)
      Ga-Kr : Obtained from the ccRepo (grant-hill.group.shef.ac.uk/ccrepo) Feb. 2017
              A. K. Wilson, D. E. Woon, K. A. Peterson, T. H. Dunning, Jr., J. Chem. Phys. 110, 7667 (1999)
     Ag, Au : Obtained from the Peterson Research Group Website (tyr0.chem.wsu.edu/~kipeters) Feb. 2017
              K. A. Peterson, C. Puzzarini, Theor. Chem. Acc. 114, 283 (2005)

----- AuxJ basis set information -----
Your calculation utilizes the auxiliary basis: def2/J
   F. Weigend, Phys. Chem. Chem. Phys. 8, 1057 (2006).

================================================================================
                                        WARNINGS
                       Please study these warnings very carefully!
================================================================================


WARNING: your system is open-shell and RHF/RKS was chosen
  ===> : WILL SWITCH to UHF/UKS


WARNING: Geometry Optimization
  ===> : Switching off AutoStart
         For restart on a previous wavefunction, please use MOREAD

INFO   : the flag for use of LIBINT has been found!

================================================================================
                                       INPUT FILE
================================================================================
NAME = 29_MnO.in
|  1> #
|  2> # 29_MnO tpss/aug-cc-pvtz
|  3> #
|  4> ! tpss d3bj aug-cc-pvtz def2/j opt xyzfile
|  5> 
|  6> *xyz 0 6
|  7> Mn 0.0 0.0 0.0
|  8> O 0.0 0.0 2.0
|  9> *
| 10> 
| 11> %pal
| 12> nprocs 24
| 13> end
| 14> 
| 15> 
| 16>                          ****END OF INPUT****
================================================================================

                       *****************************
                       * Geometry Optimization Run *
                       *****************************

Geometry optimization settings:
Update method            Update   .... BFGS
Choice of coordinates    CoordSys .... Z-matrix Internals
Initial Hessian          InHess   .... Almoef's Model

Convergence Tolerances:
Energy Change            TolE     ....  5.0000e-06 Eh
Max. Gradient            TolMAXG  ....  3.0000e-04 Eh/bohr
RMS Gradient             TolRMSG  ....  1.0000e-04 Eh/bohr
Max. Displacement        TolMAXD  ....  4.0000e-03 bohr
RMS Displacement         TolRMSD  ....  2.0000e-03 bohr
Strict Convergence                ....  False
------------------------------------------------------------------------------
                        ORCA OPTIMIZATION COORDINATE SETUP
------------------------------------------------------------------------------

The optimization will be done in new redundant internal coordinates
Making redundant internal coordinates   ...  (new redundants) done
Evaluating the initial hessian          ...  (Almloef) done
Evaluating the coordinates              ...  done
Calculating the B-matrix                .... done
Calculating the G-matrix                .... done
Diagonalizing the G-matrix              .... done
The first mode is                       ....    0
The number of degrees of freedom        ....    1

    -----------------------------------------------------------------
                    Redundant Internal Coordinates


    -----------------------------------------------------------------
         Definition                    Initial Value    Approx d2E/dq
    -----------------------------------------------------------------
      1. B(O   1,Mn  0)                  2.0000         0.602260   
    -----------------------------------------------------------------

Number of atoms                         .... 2
Number of degrees of freedom            .... 1

         *************************************************************
         *                GEOMETRY OPTIMIZATION CYCLE   1            *
         *************************************************************
---------------------------------
CARTESIAN COORDINATES (ANGSTROEM)
---------------------------------
  Mn     0.000000    0.000000    0.000000
  O      0.000000    0.000000    2.000000

----------------------------
CARTESIAN COORDINATES (A.U.)
----------------------------
  NO LB      ZA    FRAG     MASS         X           Y           Z
   0 Mn   25.0000    0    54.940    0.000000    0.000000    0.000000
   1 O     8.0000    0    15.999    0.000000    0.000000    3.779452

--------------------------------
INTERNAL COORDINATES (ANGSTROEM)
--------------------------------
 Mn     0   0   0     0.000000000000     0.00000000     0.00000000
 O      1   0   0     2.000000000000     0.00000000     0.00000000

---------------------------
INTERNAL COORDINATES (A.U.)
---------------------------
 Mn     0   0   0     0.000000000000     0.00000000     0.00000000
 O      1   0   0     3.779452267843     0.00000000     0.00000000

---------------------
BASIS SET INFORMATION
---------------------
There are 2 groups of distinct atoms

 Group   1 Type Mn  : 116s77p23d3f2g contracted to 8s7p5d3f2g pattern {19191919191911/151515151511/77711/111/11}
 Group   2 Type O   : 19s6p3d2f contracted to 5s4p3d2f pattern {88111/3111/111/11}

Atom   0Mn   basis set group =>   1
Atom   1O    basis set group =>   2
---------------------------------
AUXILIARY/J BASIS SET INFORMATION
---------------------------------
There are 2 groups of distinct atoms

 Group   1 Type Mn  : 19s5p5d3f3g contracted to 8s5p5d2f3g pattern {121111111/11111/11111/21/111}
 Group   2 Type O   : 12s5p4d2f1g contracted to 6s4p3d1f1g pattern {711111/2111/211/2/1}

Atom   0Mn   basis set group =>   1
Atom   1O    basis set group =>   2


           ************************************************************
           *        Program running with 24 parallel MPI-processes    *
           *              working on a common directory               *
           ************************************************************
------------------------------------------------------------------------------
                           ORCA GTO INTEGRAL CALCULATION
                           -- RI-GTO INTEGRALS CHOSEN --
------------------------------------------------------------------------------

                         BASIS SET STATISTICS AND STARTUP INFO

Gaussian basis set:
 # of primitive gaussian shells          ...  251
 # of primitive gaussian functions       ...  567
 # of contracted shells                  ...   39
 # of contracted basis functions         ...  139
 Highest angular momentum                ...    4
 Maximum contraction depth               ...   19
Auxiliary gaussian basis set:
 # of primitive gaussian shells          ...   59
 # of primitive gaussian functions       ...  177
 # of contracted shells                  ...   38
 # of contracted aux-basis functions     ...  138
 Highest angular momentum                ...    4
 Maximum contraction depth               ...   12
Ratio of auxiliary to basis functions    ...  0.99
Integral package used                  ... LIBINT
 One Electron integrals                  ... done
 Ordering auxiliary basis shells         ... done
 Integral threshhold             Thresh  ...  2.500e-11
 Primitive cut-off               TCut    ...  2.500e-12
 Pre-screening matrix                    ... done
 Shell pair data                         ... 
 Ordering of the shell pairs             ... done (   0.000 sec) 780 of 780 pairs
 Determination of significant pairs      ... done (   0.000 sec)
 Creation of shell pair data             ... done (   0.001 sec)
 Storage of shell pair data              ... done (   0.056 sec)
 Shell pair data done in (   0.057 sec)
 Computing two index integrals           ... done
 Cholesky decomposition of the V-matrix  ... done


Timings:
 Total evaluation time                   ...   2.187 sec (  0.036 min)
 One electron matrix time                ...   0.044 sec (  0.001 min) =  2.0%
 Schwartz matrix evaluation time         ...   2.057 sec (  0.034 min) = 94.1%
 Two index repulsion integral time       ...   0.001 sec (  0.000 min) =  0.0%
 Cholesky decomposition of V             ...   0.001 sec (  0.000 min) =  0.0%
 Three index repulsion integral time     ...   0.000 sec (  0.000 min) =  0.0%



           ************************************************************
           *        Program running with 24 parallel MPI-processes    *
           *              working on a common directory               *
           ************************************************************
-------------------------------------------------------------------------------
                                 ORCA SCF
-------------------------------------------------------------------------------

------------
SCF SETTINGS
------------
Hamiltonian:
 Density Functional     Method          .... DFT(GTOs)
 Exchange Functional    Exchange        .... TPSS
 Correlation Functional Correlation     .... TPSS
 LDA part of GGA corr.  LDAOpt          .... PW91-LDA
 Gradients option       PostSCFGGA      .... off
   Density functional embedding theory  .... OFF
   NL short-range parameter             ....  5.000000
 RI-approximation to the Coulomb term is turned on
   Number of auxiliary basis functions  .... 138


General Settings:
 Integral files         IntName         .... 29_MnO
 Hartree-Fock type      HFTyp           .... UHF
 Total Charge           Charge          ....    0
 Multiplicity           Mult            ....    6
 Number of Electrons    NEL             ....   33
 Basis Dimension        Dim             ....  139
 Nuclear Repulsion      ENuc            ....     52.9177208300 Eh

Convergence Acceleration:
 DIIS                   CNVDIIS         .... on
   Start iteration      DIISMaxIt       ....    12
   Startup error        DIISStart       ....  0.200000
   # of expansion vecs  DIISMaxEq       ....     5
   Bias factor          DIISBfac        ....   1.050
   Max. coefficient     DIISMaxC        ....  10.000
 Newton-Raphson         CNVNR           .... off
 SOSCF                  CNVSOSCF        .... off
 Level Shifting         CNVShift        .... on
   Level shift para.    LevelShift      ....    0.2500
   Turn off err/grad.   ShiftErr        ....    0.0010
 Zerner damping         CNVZerner       .... off
 Static damping         CNVDamp         .... on
   Fraction old density DampFac         ....    0.7000
   Max. Damping (<1)    DampMax         ....    0.9800
   Min. Damping (>=0)   DampMin         ....    0.0000
   Turn off err/grad.   DampErr         ....    0.1000
 Fernandez-Rico         CNVRico         .... off

SCF Procedure:
 Maximum # iterations   MaxIter         ....   125
 SCF integral mode      SCFMode         .... Direct
   Integral package                     .... LIBINT
 Reset frequency        DirectResetFreq ....    20
 Integral Threshold     Thresh          ....  2.500e-11 Eh
 Primitive CutOff       TCut            ....  2.500e-12 Eh

Convergence Tolerance:
 Convergence Check Mode ConvCheckMode   .... Total+1el-Energy
 Convergence forced     ConvForced      .... 0
 Energy Change          TolE            ....  1.000e-08 Eh
 1-El. energy change                    ....  1.000e-05 Eh
 DIIS Error             TolErr          ....  5.000e-07


Diagonalization of the overlap matrix:
Smallest eigenvalue                        ... 6.497e-05
Time for diagonalization                   ...    0.004 sec
Threshold for overlap eigenvalues          ... 1.000e-08
Number of eigenvalues below threshold      ... 0
Time for construction of square roots      ...    0.003 sec
Total time needed                          ...    0.007 sec

-------------------
DFT GRID GENERATION
-------------------

General Integration Accuracy     IntAcc      ...  4.340
Radial Grid Type                 RadialGrid  ... Gauss-Chebyshev
Angular Grid (max. acc.)         AngularGrid ... Lebedev-110
Angular grid pruning method      GridPruning ... 3 (G Style)
Weight generation scheme         WeightScheme... Becke
Basis function cutoff            BFCut       ...    1.0000e-11
Integration weight cutoff        WCut        ...    1.0000e-14
Grids for H and He will be reduced by one unit

# of grid points (after initial pruning)     ...   4628 (   0.0 sec)
# of grid points (after weights+screening)   ...   4605 (   0.0 sec)
nearest neighbour list constructed           ...    0.0 sec
Grid point re-assignment to atoms done       ...    0.0 sec
Grid point division into batches done        ...    0.0 sec
Reduced shell lists constructed in    0.0 sec

Total number of grid points                  ...     4605
Total number of batches                      ...       73
Average number of points per batch           ...       63
Average number of grid points per atom       ...     2302
Average number of shells per batch           ...    21.20 (54.36%)
Average number of basis functions per batch  ...    62.80 (45.18%)
Average number of large shells per batch     ...    16.80 (79.25%)
Average number of large basis fcns per batch ...    50.40 (80.25%)
Maximum spatial batch extension              ...  19.25, 28.73, 16.15 au
Average spatial batch extension              ...   1.01,  1.32,  0.89 au

Time for grid setup =    0.033 sec

------------------------------
INITIAL GUESS: MODEL POTENTIAL
------------------------------
Loading Hartree-Fock densities                     ... done
Calculating cut-offs                               ... done
Setting up the integral package                    ... done
Initializing the effective Hamiltonian             ... done
Starting the Coulomb interaction                   ... done (   0.0 sec)
Reading the grid                                   ... done
Mapping shells                                     ... done
Starting the XC term evaluation                    ... done (   0.0 sec)
  promolecular density results
     # of electrons  =     33.000259971
     EX              =    -58.635694778
     EC              =     -1.330819480
     EX+EC           =    -59.966514257
Transforming the Hamiltonian                       ... done (   0.0 sec)
Diagonalizing the Hamiltonian                      ... done (   0.0 sec)
Back transforming the eigenvectors                 ... done (   0.0 sec)
Now organizing SCF variables                       ... done
                      ------------------
                      INITIAL GUESS DONE (   0.2 sec)
                      ------------------
--------------
SCF ITERATIONS
--------------
ITER       Energy         Delta-E        Max-DP      RMS-DP      [F,P]     Damp
               ***  Starting incremental Fock matrix formation  ***
  0  -1225.7616980730   0.000000000000 0.29720695  0.00363834  0.5559971 0.7000
  1  -1225.6736941471   0.088003925910 0.27247461  0.00405159  0.2689323 0.7000
                               ***Turning on DIIS***
  2  -1225.7797871494  -0.106093002331 0.09356562  0.00211558  0.1634270 0.7000
  3  -1225.9236115522  -0.143824402777 0.25344196  0.00369068  0.0872116 0.0000
  4  -1226.2080558998  -0.284444347651 0.01780836  0.00027271  0.1634739 0.7000
  5  -1226.2217352931  -0.013679393313 0.02171181  0.00033713  0.1289609 0.7000
  6  -1226.2346306921  -0.012895398961 0.06957177  0.00115040  0.0999904 0.0000
  7  -1226.2561706474  -0.021539955317 0.01906210  0.00051249  0.0365163 0.0000
  8  -1226.2607670106  -0.004596363238 0.03403980  0.00068768  0.0165960 0.0000
  9  -1226.2623070460  -0.001540035331 0.01153457  0.00018170  0.0045282 0.0000
 10  -1226.2628138765  -0.000506830483 0.00684359  0.00011176  0.0091248 0.0000
 11  -1226.2631782181  -0.000364341604 0.00648351  0.00008465  0.0085774 0.0000
 12  -1226.2634965486  -0.000318330498 0.00551432  0.00009545  0.0035285 0.0000
 13  -1226.2636446457  -0.000148097148 0.00465538  0.00009630  0.0036782 0.0000
 14  -1226.2638056418  -0.000160996121 0.00440984  0.00005613  0.0021589 0.0000
 15  -1226.2638878022  -0.000082160328 0.00391543  0.00005759  0.0023327 0.0000
 16  -1226.2639485383  -0.000060736145 0.00414649  0.00004718  0.0016429 0.0000
 17  -1226.2639826078  -0.000034069526 0.00270777  0.00002832  0.0017374 0.0000
 18  -1226.2640033057  -0.000020697881 0.00607117  0.00007178  0.0006313 0.0000
 19  -1226.2640213814  -0.000018075661 0.00032018  0.00000726  0.0020881 0.0000
               *** Restarting incremental Fock matrix formation ***
                                   *** Resetting DIIS ***
 20  -1226.2640282744  -0.000006893050 0.00180050  0.00004209  0.0011802 0.0000
 21  -1226.2640102386   0.000018035791 0.00148596  0.00002988  0.0032050 0.0000
 22  -1226.2640261064  -0.000015867786 0.00041415  0.00000576  0.0017723 0.0000
 23  -1226.2640310882  -0.000004981741 0.00146060  0.00001477  0.0008272 0.0000
 24  -1226.2640315809  -0.000000492765 0.00045087  0.00000541  0.0009410 0.0000
 25  -1226.2640333018  -0.000001720845 0.00026041  0.00000421  0.0001747 0.0000
 26  -1226.2640332770   0.000000024761 0.00014234  0.00000150  0.0003396 0.0000
 27  -1226.2640334605  -0.000000183524 0.00014852  0.00000153  0.0002128 0.0000
 28  -1226.2640336133  -0.000000152780 0.00018389  0.00000233  0.0001012 0.0000
 29  -1226.2640336886  -0.000000075291 0.00003685  0.00000040  0.0000178 0.0000
 30  -1226.2640336325   0.000000056088 0.00001202  0.00000019  0.0000242 0.0000
 31  -1226.2640336615  -0.000000028981 0.00001287  0.00000013  0.0000169 0.0000
 32  -1226.2640336644  -0.000000002944 0.00000723  0.00000008  0.0000107 0.0000
 33  -1226.2640336914  -0.000000026972 0.00000997  0.00000013  0.0000069 0.0000
 34  -1226.2640336912   0.000000000252 0.00000736  0.00000008  0.0000022 0.0000
 35  -1226.2640336767   0.000000014464 0.00000113  0.00000002  0.0000011 0.0000
                            ***DIIS convergence achieved***

               *****************************************************
               *                     SUCCESS                       *
               *           SCF CONVERGED AFTER  36 CYCLES          *
               *****************************************************

Setting up the final grid:

General Integration Accuracy     IntAcc      ...  4.670
Radial Grid Type                 RadialGrid  ... Gauss-Chebyshev
Angular Grid (max. acc.)         AngularGrid ... Lebedev-302
Angular grid pruning method      GridPruning ... 3 (G Style)
Weight generation scheme         WeightScheme... Becke
Basis function cutoff            BFCut       ...    1.0000e-11
Integration weight cutoff        WCut        ...    1.0000e-14
Grids for H and He will be reduced by one unit

# of grid points (after initial pruning)     ...  15876 (   0.0 sec)
# of grid points (after weights+screening)   ...  15841 (   0.0 sec)
nearest neighbour list constructed           ...    0.0 sec
Grid point re-assignment to atoms done       ...    0.0 sec
Grid point division into batches done        ...    0.1 sec
Reduced shell lists constructed in    0.1 sec

Total number of grid points                  ...    15841
Total number of batches                      ...      249
Average number of points per batch           ...       63
Average number of grid points per atom       ...     7920
Average number of shells per batch           ...    17.17 (44.02%)
Average number of basis functions per batch  ...    42.83 (30.82%)
Average number of large shells per batch     ...    10.00 (58.25%)
Average number of large basis fcns per batch ...    24.50 (57.20%)
Maximum spatial batch extension              ...  28.57, 31.41, 16.79 au
Average spatial batch extension              ...   0.89,  0.95,  0.67 au

Final grid set up in    0.1 sec
Final integration                            ... done (   0.0 sec)
Change in XC energy                          ...     0.002520295
Integrated number of electrons               ...    33.000015249
Previous integrated no of electrons          ...    33.000464299

----------------
TOTAL SCF ENERGY
----------------

Total Energy       :        -1226.26151341 Eh          -33368.27219 eV

Components:
Nuclear Repulsion  :           52.91772083 Eh            1439.96439 eV
Electronic Energy  :        -1279.17923424 Eh          -34808.23658 eV
One Electron Energy:        -1795.65350725 Eh          -48862.21604 eV
Two Electron Energy:          516.47427301 Eh           14053.97946 eV

Virial components:
Potential Energy   :        -2450.13539392 Eh          -66671.57359 eV
Kinetic Energy     :         1223.87388050 Eh           33303.30140 eV
Virial Ratio       :            2.00195088


DFT components:
N(Alpha)           :       19.000009103579 electrons
N(Beta)            :       14.000006145189 electrons
N(Total)           :       33.000015248768 electrons
E(X)               :      -59.311226419953 Eh       
E(C)               :       -1.324027377885 Eh       
E(XC)              :      -60.635253797838 Eh       
DFET-embed. en.    :        0.000000000000 Eh       

---------------
SCF CONVERGENCE
---------------

  Last Energy change         ...   -3.0549e-08  Tolerance :   1.0000e-08
  Last MAX-Density change    ...    2.5227e-06  Tolerance :   1.0000e-07
  Last RMS-Density change    ...    2.9831e-08  Tolerance :   5.0000e-09
  Last DIIS Error            ...    9.9963e-07  Tolerance :   5.0000e-07

             **** THE GBW FILE WAS UPDATED (29_MnO.gbw) ****
             **** DENSITY FILE WAS UPDATED (29_MnO.scfp) ****
             **** ENERGY FILE WAS UPDATED (29_MnO.en.tmp) ****
----------------------
UHF SPIN CONTAMINATION
----------------------

Warning: in a DFT calculation there is little theoretical justification to 
         calculate <S**2> as in Hartree-Fock theory. We will do it anyways
         but you should keep in mind that the values have only limited relevance

Expectation value of <S**2>     :     8.942054
Ideal value S*(S+1) for S=2.5   :     8.750000
Deviation                       :     0.192054

             **** THE GBW FILE WAS UPDATED (29_MnO.gbw) ****
             **** DENSITY FILE WAS UPDATED (29_MnO.scfp) ****
----------------
ORBITAL ENERGIES
----------------
                 SPIN UP ORBITALS
  NO   OCC          E(Eh)            E(eV) 
   0   1.0000    -234.714026     -6386.8934 
   1   1.0000     -27.001012      -734.7349 
   2   1.0000     -23.088104      -628.2592 
   3   1.0000     -23.088104      -628.2592 
   4   1.0000     -23.080959      -628.0648 
   5   1.0000     -18.846433      -512.8375 
   6   1.0000      -3.155547       -85.8668 
   7   1.0000      -2.043758       -55.6135 
   8   1.0000      -2.043758       -55.6135 
   9   1.0000      -2.028849       -55.2078 
  10   1.0000      -0.757658       -20.6169 
  11   1.0000      -0.292500        -7.9593 
  12   1.0000      -0.292440        -7.9577 
  13   1.0000      -0.291601        -7.9349 
  14   1.0000      -0.289139        -7.8679 
  15   1.0000      -0.289139        -7.8679 
  16   1.0000      -0.224857        -6.1187 
  17   1.0000      -0.194191        -5.2842 
  18   1.0000      -0.194191        -5.2842 
  19   0.0000      -0.151073        -4.1109 
  20   0.0000      -0.050977        -1.3871 
  21   0.0000      -0.050977        -1.3871 
  22   0.0000      -0.007325        -0.1993 
  23   0.0000       0.003423         0.0931 
  24   0.0000       0.024562         0.6684 
  25   0.0000       0.024562         0.6684 
  26   0.0000       0.045253         1.2314 
  27   0.0000       0.045293         1.2325 
  28   0.0000       0.047541         1.2937 
  29   0.0000       0.051553         1.4028 
  30   0.0000       0.051553         1.4028 
  31   0.0000       0.065829         1.7913 
  32   0.0000       0.085532         2.3274 
  33   0.0000       0.142025         3.8647 
  34   0.0000       0.142025         3.8647 
  35   0.0000       0.170368         4.6360 
  36   0.0000       0.195505         5.3200 
  37   0.0000       0.200863         5.4658 
  38   0.0000       0.200863         5.4658 
  39   0.0000       0.206467         5.6183 
  40   0.0000       0.206633         5.6228 
  41   0.0000       0.227827         6.1995 
  42   0.0000       0.227827         6.1995 
  43   0.0000       0.279739         7.6121 
  44   0.0000       0.369282        10.0487 
  45   0.0000       0.464183        12.6311 
  46   0.0000       0.525878        14.3099 
  47   0.0000       0.525984        14.3128 
  48   0.0000       0.614258        16.7148 
  49   0.0000       0.614258        16.7148 
  50   0.0000       0.621694        16.9171 
  51   0.0000       0.621694        16.9171 
  52   0.0000       0.669880        18.2284 
  53   0.0000       0.673251        18.3201 
  54   0.0000       0.673251        18.3201 
  55   0.0000       0.736667        20.0457 
  56   0.0000       0.737796        20.0765 
  57   0.0000       0.737796        20.0765 
  58   0.0000       0.746493        20.3131 
  59   0.0000       0.747870        20.3506 
  60   0.0000       0.854016        23.2389 
  61   0.0000       0.854016        23.2389 
  62   0.0000       0.864234        23.5170 
  63   0.0000       0.865098        23.5405 
  64   0.0000       0.882536        24.0150 
  65   0.0000       1.086610        29.5682 
  66   0.0000       1.149702        31.2850 
  67   0.0000       1.169379        31.8204 
  68   0.0000       1.169379        31.8204 
  69   0.0000       1.747589        47.5543 
  70   0.0000       1.847570        50.2749 
  71   0.0000       1.847570        50.2749 
  72   0.0000       1.862994        50.6946 
  73   0.0000       1.863078        50.6969 
  74   0.0000       1.863078        50.6969 
  75   0.0000       1.869911        50.8829 
  76   0.0000       2.003855        54.5277 
  77   0.0000       2.004545        54.5464 
  78   0.0000       2.039713        55.5034 
  79   0.0000       2.076227        56.4970 
  80   0.0000       2.076227        56.4970 
  81   0.0000       2.115968        57.5784 
  82   0.0000       2.116442        57.5913 
  83   0.0000       2.136670        58.1418 
  84   0.0000       2.136670        58.1418 
  85   0.0000       2.159774        58.7704 
  86   0.0000       2.433361        66.2151 
  87   0.0000       2.433361        66.2151 
  88   0.0000       2.464597        67.0651 
  89   0.0000       2.541060        69.1458 
  90   0.0000       2.541061        69.1458 
  91   0.0000       2.559713        69.6533 
  92   0.0000       2.560740        69.6813 
  93   0.0000       2.588886        70.4472 
  94   0.0000       2.588886        70.4472 
  95   0.0000       2.715236        73.8853 
  96   0.0000       2.798254        76.1444 
  97   0.0000       2.798354        76.1471 
  98   0.0000       2.829683        76.9996 
  99   0.0000       3.142516        85.5122 
 100   0.0000       3.142516        85.5122 
 101   0.0000       3.352456        91.2250 
 102   0.0000       3.709209       100.9327 
 103   0.0000       3.709361       100.9369 
 104   0.0000       3.856578       104.9428 
 105   0.0000       3.856578       104.9428 
 106   0.0000       4.005792       109.0031 
 107   0.0000       4.005792       109.0031 
 108   0.0000       4.109899       111.8360 
 109   0.0000       4.776805       129.9835 
 110   0.0000       6.150661       167.3680 
 111   0.0000       6.150661       167.3680 
 112   0.0000       6.199859       168.7067 
 113   0.0000       6.244250       169.9147 
 114   0.0000       6.418982       174.6694 
 115   0.0000       6.418982       174.6694 
 116   0.0000       6.427562       174.9029 
 117   0.0000       6.554533       178.3579 
 118   0.0000       6.558569       178.4677 
 119   0.0000       6.647384       180.8845 
 120   0.0000       6.647384       180.8845 
 121   0.0000       6.798821       185.0053 
 122   0.0000       7.246942       197.1993 
 123   0.0000       7.246942       197.1993 
 124   0.0000       7.269438       197.8115 
 125   0.0000       7.269581       197.8154 
 126   0.0000       7.362949       200.3560 
 127   0.0000       7.362949       200.3560 
 128   0.0000       7.565346       205.8635 
 129   0.0000       7.819666       212.7839 
 130   0.0000       7.819852       212.7890 
 131   0.0000       7.835232       213.2075 
 132   0.0000       7.835232       213.2075 
 133   0.0000       7.908134       215.1913 
 134   0.0000       7.910058       215.2436 
 135   0.0000       8.102698       220.4856 
 136   0.0000       8.102698       220.4856 
 137   0.0000       8.253049       224.5769 
 138   0.0000      10.892287       296.3942 

                 SPIN DOWN ORBITALS
  NO   OCC          E(Eh)            E(eV) 
   0   1.0000    -234.712584     -6386.8541 
   1   1.0000     -26.937174      -732.9978 
   2   1.0000     -23.034482      -626.8001 
   3   1.0000     -23.034482      -626.8001 
   4   1.0000     -23.033086      -626.7621 
   5   1.0000     -18.846830      -512.8483 
   6   1.0000      -2.983410       -81.1827 
   7   1.0000      -1.866810       -50.7985 
   8   1.0000      -1.866810       -50.7985 
   9   1.0000      -1.865590       -50.7653 
  10   1.0000      -0.761493       -20.7213 
  11   1.0000      -0.262779        -7.1506 
  12   1.0000      -0.199944        -5.4407 
  13   1.0000      -0.199944        -5.4407 
  14   0.0000      -0.134534        -3.6609 
  15   0.0000      -0.127844        -3.4788 
  16   0.0000      -0.127787        -3.4773 
  17   0.0000      -0.115102        -3.1321 
  18   0.0000      -0.115102        -3.1321 
  19   0.0000      -0.096286        -2.6201 
  20   0.0000      -0.010751        -0.2926 
  21   0.0000      -0.010751        -0.2926 
  22   0.0000       0.011289         0.3072 
  23   0.0000       0.014790         0.4025 
  24   0.0000       0.039288         1.0691 
  25   0.0000       0.039288         1.0691 
  26   0.0000       0.060569         1.6482 
  27   0.0000       0.063905         1.7389 
  28   0.0000       0.063938         1.7398 
  29   0.0000       0.064955         1.7675 
  30   0.0000       0.064955         1.7675 
  31   0.0000       0.077631         2.1124 
  32   0.0000       0.111854         3.0437 
  33   0.0000       0.176898         4.8136 
  34   0.0000       0.176898         4.8136 
  35   0.0000       0.181923         4.9504 
  36   0.0000       0.206772         5.6266 
  37   0.0000       0.206772         5.6266 
  38   0.0000       0.214409         5.8344 
  39   0.0000       0.242071         6.5871 
  40   0.0000       0.242147         6.5892 
  41   0.0000       0.254817         6.9339 
  42   0.0000       0.254817         6.9339 
  43   0.0000       0.294159         8.0045 
  44   0.0000       0.396346        10.7851 
  45   0.0000       0.505271        13.7491 
  46   0.0000       0.541838        14.7442 
  47   0.0000       0.541853        14.7446 
  48   0.0000       0.656217        17.8566 
  49   0.0000       0.656217        17.8566 
  50   0.0000       0.664336        18.0775 
  51   0.0000       0.664336        18.0775 
  52   0.0000       0.683670        18.6036 
  53   0.0000       0.714522        19.4431 
  54   0.0000       0.714522        19.4431 
  55   0.0000       0.772494        21.0206 
  56   0.0000       0.777508        21.1571 
  57   0.0000       0.777508        21.1571 
  58   0.0000       0.779870        21.2213 
  59   0.0000       0.781084        21.2544 
  60   0.0000       0.890663        24.2362 
  61   0.0000       0.890663        24.2362 
  62   0.0000       0.915500        24.9120 
  63   0.0000       0.953948        25.9582 
  64   0.0000       0.954531        25.9741 
  65   0.0000       1.128227        30.7006 
  66   0.0000       1.153777        31.3959 
  67   0.0000       1.211160        32.9573 
  68   0.0000       1.211160        32.9573 
  69   0.0000       1.755696        47.7749 
  70   0.0000       1.872502        50.9534 
  71   0.0000       1.872502        50.9534 
  72   0.0000       1.876771        51.0695 
  73   0.0000       1.877372        51.0859 
  74   0.0000       1.877372        51.0859 
  75   0.0000       1.883926        51.2642 
  76   0.0000       2.018511        54.9265 
  77   0.0000       2.019439        54.9517 
  78   0.0000       2.089889        56.8688 
  79   0.0000       2.170084        59.0510 
  80   0.0000       2.170084        59.0510 
  81   0.0000       2.187484        59.5245 
  82   0.0000       2.193151        59.6787 
  83   0.0000       2.193151        59.6787 
  84   0.0000       2.218079        60.3570 
  85   0.0000       2.218396        60.3656 
  86   0.0000       2.486785        67.6689 
  87   0.0000       2.486785        67.6689 
  88   0.0000       2.583865        70.3105 
  89   0.0000       2.650046        72.1114 
  90   0.0000       2.650961        72.1363 
  91   0.0000       2.661635        72.4268 
  92   0.0000       2.661635        72.4268 
  93   0.0000       2.673775        72.7571 
  94   0.0000       2.673775        72.7571 
  95   0.0000       2.776547        75.5537 
  96   0.0000       2.864780        77.9546 
  97   0.0000       2.865138        77.9644 
  98   0.0000       2.918569        79.4183 
  99   0.0000       3.210040        87.3496 
 100   0.0000       3.210040        87.3496 
 101   0.0000       3.403284        92.6081 
 102   0.0000       3.851370       104.8011 
 103   0.0000       3.851449       104.8033 
 104   0.0000       3.877679       105.5170 
 105   0.0000       3.877679       105.5170 
 106   0.0000       4.115497       111.9884 
 107   0.0000       4.115497       111.9884 
 108   0.0000       4.135861       112.5425 
 109   0.0000       4.850286       131.9830 
 110   0.0000       6.159384       167.6054 
 111   0.0000       6.159384       167.6054 
 112   0.0000       6.199801       168.7052 
 113   0.0000       6.245880       169.9590 
 114   0.0000       6.416852       174.6114 
 115   0.0000       6.416852       174.6114 
 116   0.0000       6.427130       174.8911 
 117   0.0000       6.572643       178.8507 
 118   0.0000       6.576831       178.9647 
 119   0.0000       6.638326       180.6380 
 120   0.0000       6.638326       180.6380 
 121   0.0000       6.797254       184.9627 
 122   0.0000       7.452185       202.7843 
 123   0.0000       7.452185       202.7843 
 124   0.0000       7.467985       203.2142 
 125   0.0000       7.468085       203.2169 
 126   0.0000       7.552190       205.5055 
 127   0.0000       7.552190       205.5055 
 128   0.0000       7.724009       210.1810 
 129   0.0000       7.963735       216.7043 
 130   0.0000       7.963903       216.7088 
 131   0.0000       7.972714       216.9486 
 132   0.0000       7.972714       216.9486 
 133   0.0000       8.041403       218.8177 
 134   0.0000       8.043039       218.8622 
 135   0.0000       8.232730       224.0240 
 136   0.0000       8.232730       224.0240 
 137   0.0000       8.379619       228.0210 
 138   0.0000      10.908557       296.8369 

                    ********************************
                    * MULLIKEN POPULATION ANALYSIS *
                    ********************************

--------------------------------------------
MULLIKEN ATOMIC CHARGES AND SPIN POPULATIONS
--------------------------------------------
   0 Mn:    0.663286    5.021947
   1 O :   -0.663286   -0.021947
Sum of atomic charges         :   -0.0000000
Sum of atomic spin populations:    5.0000000

-----------------------------------------------------
MULLIKEN REDUCED ORBITAL CHARGES AND SPIN POPULATIONS
-----------------------------------------------------
CHARGE
  0 Mns       :     6.716876  s :     6.716876
      pz      :     4.039598  p :    12.187864
      px      :     4.074133
      py      :     4.074133
      dz2     :     1.024398  d :     5.416961
      dxz     :     1.196602
      dyz     :     1.196602
      dx2y2   :     0.999678
      dxy     :     0.999681
      f0      :     0.005239  f :     0.013459
      f+1     :     0.003904
      f-1     :     0.003904
      f+2     :     0.000207
      f-2     :     0.000206
      f+3     :     0.000000
      f-3     :     0.000000
      g0      :     0.000593  g :     0.001553
      g+1     :     0.000477
      g-1     :     0.000477
      g+2     :     0.000003
      g-2     :     0.000003
      g+3     :     0.000000
      g-3     :     0.000000
      g+4     :     0.000000
      g-4     :     0.000000
  1 O s       :     3.973192  s :     3.973192
      pz      :     1.238020  p :     4.675512
      px      :     1.718746
      py      :     1.718746
      dz2     :     0.001552  d :     0.012546
      dxz     :     0.005428
      dyz     :     0.005428
      dx2y2   :     0.000069
      dxy     :     0.000068
      f0      :     0.000532  f :     0.002036
      f+1     :     0.000709
      f-1     :     0.000709
      f+2     :     0.000043
      f-2     :     0.000042
      f+3     :     0.000000
      f-3     :     0.000000

SPIN
  0 Mns       :     0.569698  s :     0.569698
      pz      :     0.002863  p :     0.091315
      px      :     0.044226
      py      :     0.044226
      dz2     :     0.782413  d :     4.359244
      dxz     :     0.788736
      dyz     :     0.788736
      dx2y2   :     0.999678
      dxy     :     0.999681
      f0      :    -0.000832  f :     0.001970
      f+1     :     0.001195
      f-1     :     0.001195
      f+2     :     0.000207
      f-2     :     0.000206
      f+3     :     0.000000
      f-3     :     0.000000
      g0      :    -0.000208  g :    -0.000279
      g+1     :    -0.000039
      g-1     :    -0.000039
      g+2     :     0.000003
      g-2     :     0.000003
      g+3     :     0.000000
      g-3     :     0.000000
      g+4     :     0.000000
      g-4     :     0.000000
  1 O s       :     0.002186  s :     0.002186
      pz      :    -0.356141  p :    -0.020033
      px      :     0.168054
      py      :     0.168054
      dz2     :     0.000040  d :    -0.003190
      dxz     :    -0.001684
      dyz     :    -0.001684
      dx2y2   :     0.000069
      dxy     :     0.000068
      f0      :    -0.000019  f :    -0.000910
      f+1     :    -0.000488
      f-1     :    -0.000488
      f+2     :     0.000043
      f-2     :     0.000042
      f+3     :     0.000000
      f-3     :     0.000000


                     *******************************
                     * LOEWDIN POPULATION ANALYSIS *
                     *******************************

-------------------------------------------
LOEWDIN ATOMIC CHARGES AND SPIN POPULATIONS
-------------------------------------------
   0 Mn:    0.542953    4.925312
   1 O :   -0.542953    0.074688

----------------------------------------------------
LOEWDIN REDUCED ORBITAL CHARGES AND SPIN POPULATIONS
----------------------------------------------------
CHARGE
  0 Mns       :     6.538591  s :     6.538591
      pz      :     4.095156  p :    12.270944
      px      :     4.087894
      py      :     4.087894
      dz2     :     1.094672  d :     5.493406
      dxz     :     1.201961
      dyz     :     1.201961
      dx2y2   :     0.997404
      dxy     :     0.997407
      f0      :     0.066556  f :     0.143982
      f+1     :     0.038353
      f-1     :     0.038353
      f+2     :     0.000361
      f-2     :     0.000358
      f+3     :     0.000000
      f-3     :     0.000000
      g0      :     0.004987  g :     0.010124
      g+1     :     0.002552
      g-1     :     0.002552
      g+2     :     0.000016
      g-2     :     0.000016
      g+3     :     0.000000
      g-3     :     0.000000
      g+4     :     0.000000
      g-4     :     0.000000
  1 O s       :     3.697103  s :     3.697103
      pz      :     1.394349  p :     4.650880
      px      :     1.628265
      py      :     1.628265
      dz2     :     0.085949  d :     0.148340
      dxz     :     0.029852
      dyz     :     0.029852
      dx2y2   :     0.001344
      dxy     :     0.001343
      f0      :     0.022636  f :     0.046630
      f+1     :     0.011122
      f-1     :     0.011122
      f+2     :     0.000875
      f-2     :     0.000875
      f+3     :     0.000000
      f-3     :     0.000000

SPIN
  0 Mns       :     0.494820  s :     0.494820
      pz      :     0.010840  p :     0.128112
      px      :     0.058636
      py      :     0.058636
      dz2     :     0.755561  d :     4.282170
      dxz     :     0.765899
      dyz     :     0.765899
      dx2y2   :     0.997404
      dxy     :     0.997407
      f0      :    -0.000907  f :     0.019369
      f+1     :     0.009778
      f-1     :     0.009778
      f+2     :     0.000361
      f-2     :     0.000358
      f+3     :     0.000000
      f-3     :     0.000000
      g0      :    -0.000714  g :     0.000840
      g+1     :     0.000761
      g-1     :     0.000761
      g+2     :     0.000016
      g-2     :     0.000016
      g+3     :     0.000000
      g-3     :     0.000000
      g+4     :     0.000000
      g-4     :     0.000000
  1 O s       :     0.014052  s :     0.014052
      pz      :    -0.280313  p :     0.015190
      px      :     0.147752
      py      :     0.147752
      dz2     :     0.003781  d :     0.028905
      dxz     :     0.011218
      dyz     :     0.011218
      dx2y2   :     0.001344
      dxy     :     0.001343
      f0      :     0.002879  f :     0.016541
      f+1     :     0.005956
      f-1     :     0.005956
      f+2     :     0.000875
      f-2     :     0.000875
      f+3     :     0.000000
      f-3     :     0.000000


                      *****************************
                      * MAYER POPULATION ANALYSIS *
                      *****************************

  NA   - Mulliken gross atomic population
  ZA   - Total nuclear charge
  QA   - Mulliken gross atomic charge
  VA   - Mayer's total valence
  BVA  - Mayer's bonded valence
  FA   - Mayer's free valence

  ATOM       NA         ZA         QA         VA         BVA        FA
  0 Mn    24.3367    25.0000     0.6633     6.2352     1.7607     4.4745
  1 O      8.6633     8.0000    -0.6633     1.9499     1.7607     0.1892

  Mayer bond orders larger than 0.100000
B(  0-Mn,  1-O ) :   1.7607 

-------
TIMINGS
-------

Total SCF time: 0 days 0 hours 0 min 5 sec 

Total time                  ....       5.621 sec
Sum of individual times     ....       5.449 sec  ( 96.9%)

Fock matrix formation       ....       4.917 sec  ( 87.5%)
  Split-RI-J                ....       4.174 sec  ( 84.9% of F)
  XC integration            ....       0.587 sec  ( 11.9% of F)
    Basis function eval.    ....       0.072 sec  ( 12.3% of XC)
    Density eval.           ....       0.083 sec  ( 14.2% of XC)
    XC-Functional eval.     ....       0.020 sec  (  3.4% of XC)
    XC-Potential eval.      ....       0.237 sec  ( 40.4% of XC)
Diagonalization             ....       0.176 sec  (  3.1%)
Density matrix formation    ....       0.023 sec  (  0.4%)
Population analysis         ....       0.006 sec  (  0.1%)
Initial guess               ....       0.123 sec  (  2.2%)
Orbital Transformation      ....       0.000 sec  (  0.0%)
Orbital Orthonormalization  ....       0.000 sec  (  0.0%)
DIIS solution               ....       0.065 sec  (  1.2%)
Grid generation             ....       0.139 sec  (  2.5%)


-------------------------------------------------------------------------------
                          DFT DISPERSION CORRECTION                            
                                                                               
                              DFTD3 V3.1  Rev 1                                
                          USING Becke-Johnson damping                          
-------------------------------------------------------------------------------
The TPSS functional is recognized
Active option DFTDOPT                   ...         4   

molecular C6(AA) [au] = 484.514028 


            DFT-D V3
 parameters
 s6 scaling factor         :     1.0000 
 a1 scaling factor         :     0.4535 
 s8 scaling factor         :     1.9435 
 a2 scaling factor         :     4.4752 
 ad hoc parameters k1-k3   :    16.0000     1.3333    -4.0000 

 Edisp/kcal,au: -0.513324775686  -0.000818035013 
 E6   /kcal   :  -0.199767654 
 E8   /kcal   :  -0.313557122 
 % E8         :  61.083574470 

-------------------------   ----------------
Dispersion correction           -0.000818035
-------------------------   ----------------


-------------------------   --------------------
FINAL SINGLE POINT ENERGY     -1226.262331447236
-------------------------   --------------------



           ************************************************************
           *        Program running with 24 parallel MPI-processes    *
           *              working on a common directory               *
           ************************************************************
------------------------------------------------------------------------------
                         ORCA SCF GRADIENT CALCULATION
------------------------------------------------------------------------------

Gradient of the Kohn-Sham DFT energy:
Kohn-Sham wavefunction type      ... UKS
Hartree-Fock exchange scaling    ...    0.000
Number of operators              ...    2
Number of atoms                  ...    2
Basis set dimensions             ...  139
Integral neglect threshold       ... 2.5e-11
Integral primitive cutoff        ... 2.5e-12

Nuclear repulsion gradient       ... done
One Electron Gradient            ... done
Pre-screening matrix             ... done
RI-J gradient                    ... done
Exchange-correlation gradient    ... done
Dispersion correction            ... done

------------------
CARTESIAN GRADIENT
------------------

   1   Mn  :   -0.000000003    0.000000002   -0.098439074
   2   O   :    0.000000001   -0.000000007    0.096853111

Difference to translation invariance:
           :   -0.0000000018   -0.0000000054   -0.0015859628

Norm of the cartesian gradient     ...    0.1380969816
RMS gradient                       ...    0.0563778566
MAX gradient                       ...    0.0984390737

-------
TIMINGS
-------

Total SCF gradient time            ...        4.248 sec

One electron gradient       ....       0.069 sec  (  1.6%)
Prescreening matrices       ....       3.393 sec  ( 79.9%)
RI-J Coulomb gradient       ....       0.234 sec  (  5.5%)
XC gradient                 ....       0.046 sec  (  1.1%)
------------------------------------------------------------------------------
                         ORCA GEOMETRY RELAXATION STEP
------------------------------------------------------------------------------

Reading the OPT-File                    .... done
Getting information on internals        .... done
Copying old internal coords+grads       .... done
Making the new internal coordinates     .... (new redundants).... done
Validating the new internal coordinates .... (new redundants).... done
Calculating the B-matrix                .... done
Calculating the G,G- and P matrices     .... done
Transforming gradient to internals      .... done
Projecting the internal gradient        .... done
Number of atoms                         ....   2
Number of internal coordinates          ....   1
Current Energy                          .... -1226.262331447 Eh
Current gradient norm                   ....     0.138096982 Eh/bohr
Maximum allowed component of the step   ....  0.300
Current trust radius                    ....  0.300
Evaluating the initial hessian          ....  (Almloef) done
Projecting the Hessian                  .... done
Forming the augmented Hessian           .... done
Diagonalizing the augmented Hessian     .... done
Last element of RFO vector              ....  0.987734593
Lowest eigenvalues of augmented Hessian:
 -0.015436000
Length of the computed step             ....  0.158081087
The final length of the internal step   ....  0.158081087
Converting the step to cartesian space:
 Initial RMS(Int)=    0.1580810871
Transforming coordinates:
 Iter   0:  RMS(Cart)=    0.0456340791 RMS(Int)=    0.1580810871
 Iter   1:  RMS(Cart)=    0.0000000000 RMS(Int)=    0.0000000000
done
Storing new coordinates                 .... done

                                .--------------------.
          ----------------------|Geometry convergence|-------------------------
          Item                value                   Tolerance       Converged
          ---------------------------------------------------------------------
          RMS gradient        0.0976460923            0.0001000000      NO
          MAX gradient        0.0976460923            0.0003000000      NO
          RMS step            0.1580810871            0.0020000000      NO
          MAX step            0.1580810871            0.0040000000      NO
          ........................................................
          Max(Bonds)      0.0837      Max(Angles)    0.00
          Max(Dihed)        0.00      Max(Improp)    0.00
          ---------------------------------------------------------------------

The optimization has not yet converged - more geometry cycles are needed


    ---------------------------------------------------------------------------
                         Redundant Internal Coordinates
                            (Angstroem and degrees)

        Definition                    Value    dE/dq     Step     New-Value
    ----------------------------------------------------------------------------
     1. B(O   1,Mn  0)                2.0000  0.097646 -0.0837    1.9163   
    ----------------------------------------------------------------------------

         *************************************************************
         *                GEOMETRY OPTIMIZATION CYCLE   2            *
         *************************************************************
---------------------------------
CARTESIAN COORDINATES (ANGSTROEM)
---------------------------------
  Mn     0.000000    0.000000    0.041826
  O      0.000000    0.000000    1.958174

----------------------------
CARTESIAN COORDINATES (A.U.)
----------------------------
  NO LB      ZA    FRAG     MASS         X           Y           Z
   0 Mn   25.0000    0    54.940    0.000000    0.000000    0.079041
   1 O     8.0000    0    15.999    0.000000    0.000000    3.700412

--------------------------------
INTERNAL COORDINATES (ANGSTROEM)
--------------------------------
 Mn     0   0   0     0.000000000000     0.00000000     0.00000000
 O      1   0   0     1.916347091666     0.00000000     0.00000000

---------------------------
INTERNAL COORDINATES (A.U.)
---------------------------
 Mn     0   0   0     0.000000000000     0.00000000     0.00000000
 O      1   0   0     3.621371180785     0.00000000     0.00000000



           ************************************************************
           *        Program running with 24 parallel MPI-processes    *
           *              working on a common directory               *
           ************************************************************
 One Electron integrals                  ... done
 Pre-screening matrix                    ... done


           ************************************************************
           *        Program running with 24 parallel MPI-processes    *
           *              working on a common directory               *
           ************************************************************

Diagonalization of the overlap matrix:
Smallest eigenvalue                        ... 5.697e-05
Time for diagonalization                   ...    0.005 sec
Threshold for overlap eigenvalues          ... 1.000e-08
Number of eigenvalues below threshold      ... 0
Time for construction of square roots      ...    0.003 sec
Total time needed                          ...    0.008 sec

-------------------
DFT GRID GENERATION
-------------------

General Integration Accuracy     IntAcc      ...  4.340
Radial Grid Type                 RadialGrid  ... Gauss-Chebyshev
Angular Grid (max. acc.)         AngularGrid ... Lebedev-110
Angular grid pruning method      GridPruning ... 3 (G Style)
Weight generation scheme         WeightScheme... Becke
Basis function cutoff            BFCut       ...    1.0000e-11
Integration weight cutoff        WCut        ...    1.0000e-14
Grids for H and He will be reduced by one unit

# of grid points (after initial pruning)     ...   4628 (   0.0 sec)
# of grid points (after weights+screening)   ...   4603 (   0.0 sec)
nearest neighbour list constructed           ...    0.0 sec
Grid point re-assignment to atoms done       ...    0.0 sec
Grid point division into batches done        ...    0.0 sec
Reduced shell lists constructed in    0.0 sec

Total number of grid points                  ...     4603
Total number of batches                      ...       72
Average number of points per batch           ...       63
Average number of grid points per atom       ...     2302
Average number of shells per batch           ...    19.75 (50.64%)
Average number of basis functions per batch  ...    57.75 (41.55%)
Average number of large shells per batch     ...    15.50 (78.48%)
Average number of large basis fcns per batch ...    46.00 (79.65%)
Maximum spatial batch extension              ...  19.25, 28.73, 16.15 au
Average spatial batch extension              ...   0.78,  1.07,  0.67 au

Time for grid setup =    0.018 sec

--------------
SCF ITERATIONS
--------------
ITER       Energy         Delta-E        Max-DP      RMS-DP      [F,P]     Damp
               ***  Starting incremental Fock matrix formation  ***
  0  -1226.2783592348   0.000000000000 0.00405553  0.00007791  0.0131090 0.7000
  1  -1226.2786140242  -0.000254789350 0.00508778  0.00008429  0.0069122 0.7000
                               ***Turning on DIIS***
  2  -1226.2787721536  -0.000158129421 0.01199019  0.00022038  0.0048380 0.0000
  3  -1226.2791828216  -0.000410668008 0.00485124  0.00010420  0.0067823 0.0000
  4  -1226.2792790121  -0.000096190531 0.00380423  0.00007995  0.0034568 0.0000
  5  -1226.2793275503  -0.000048538174 0.00449680  0.00006524  0.0006768 0.0000
  6  -1226.2793513606  -0.000023810295 0.00061882  0.00001363  0.0024145 0.0000
  7  -1226.2793598095  -0.000008448887 0.00067726  0.00000863  0.0015818 0.0000
  8  -1226.2793660285  -0.000006218986 0.00211277  0.00002213  0.0006257 0.0000
  9  -1226.2793711553  -0.000005126838 0.00056823  0.00000849  0.0004544 0.0000
 10  -1226.2793721123  -0.000000956994 0.00049587  0.00000730  0.0002831 0.0000
 11  -1226.2793723355  -0.000000223205 0.00053108  0.00000713  0.0003955 0.0000
 12  -1226.2793729339  -0.000000598359 0.00020288  0.00000300  0.0000861 0.0000
 13  -1226.2793730042  -0.000000070320 0.00002864  0.00000041  0.0000429 0.0000
 14  -1226.2793730209  -0.000000016721 0.00002306  0.00000036  0.0000068 0.0000
 15  -1226.2793729829   0.000000038008 0.00002051  0.00000024  0.0000157 0.0000
 16  -1226.2793729730   0.000000009925 0.00001007  0.00000012  0.0000052 0.0000
                            ***DIIS convergence achieved***

               *****************************************************
               *                     SUCCESS                       *
               *           SCF CONVERGED AFTER  17 CYCLES          *
               *****************************************************

Setting up the final grid:

General Integration Accuracy     IntAcc      ...  4.670
Radial Grid Type                 RadialGrid  ... Gauss-Chebyshev
Angular Grid (max. acc.)         AngularGrid ... Lebedev-302
Angular grid pruning method      GridPruning ... 3 (G Style)
Weight generation scheme         WeightScheme... Becke
Basis function cutoff            BFCut       ...    1.0000e-11
Integration weight cutoff        WCut        ...    1.0000e-14
Grids for H and He will be reduced by one unit

# of grid points (after initial pruning)     ...  15876 (   0.0 sec)
# of grid points (after weights+screening)   ...  15841 (   0.0 sec)
nearest neighbour list constructed           ...    0.0 sec
Grid point re-assignment to atoms done       ...    0.0 sec
Grid point division into batches done        ...    0.1 sec
Reduced shell lists constructed in    0.1 sec

Total number of grid points                  ...    15841
Total number of batches                      ...      248
Average number of points per batch           ...       63
Average number of grid points per atom       ...     7920
Average number of shells per batch           ...    17.17 (44.02%)
Average number of basis functions per batch  ...    42.83 (30.82%)
Average number of large shells per batch     ...     9.75 (56.80%)
Average number of large basis fcns per batch ...    23.75 (55.45%)
Maximum spatial batch extension              ...  28.57, 31.41, 16.63 au
Average spatial batch extension              ...   0.89,  0.95,  0.66 au

Final grid set up in    0.1 sec
Final integration                            ... done (   0.0 sec)
Change in XC energy                          ...     0.002603156
Integrated number of electrons               ...    33.000017122
Previous integrated no of electrons          ...    33.000580921
Total Energy       :        -1226.27676980 Eh          -33368.68734 eV
  Last Energy change         ...    1.9454e-08  Tolerance :   1.0000e-08
  Last MAX-Density change    ...    4.9986e-06  Tolerance :   1.0000e-07
             **** THE GBW FILE WAS UPDATED (29_MnO.gbw) ****
             **** DENSITY FILE WAS UPDATED (29_MnO.scfp) ****
             **** ENERGY FILE WAS UPDATED (29_MnO.en.tmp) ****
----------------------
UHF SPIN CONTAMINATION
----------------------

Warning: in a DFT calculation there is little theoretical justification to 
         calculate <S**2> as in Hartree-Fock theory. We will do it anyways
         but you should keep in mind that the values have only limited relevance

Expectation value of <S**2>     :     8.891697
Ideal value S*(S+1) for S=2.5   :     8.750000
Deviation                       :     0.141697

             **** THE GBW FILE WAS UPDATED (29_MnO.gbw) ****
             **** DENSITY FILE WAS UPDATED (29_MnO.scfp) ****
Total SCF time: 0 days 0 hours 0 min 3 sec 


-------------------------------------------------------------------------------
                          DFT DISPERSION CORRECTION                            
                                                                               
                              DFTD3 V3.1  Rev 1                                
                          USING Becke-Johnson damping                          
-------------------------------------------------------------------------------
-------------------------   ----------------
Dispersion correction           -0.000769754
-------------------------   ----------------


-------------------------   --------------------
FINAL SINGLE POINT ENERGY     -1226.277539550654
-------------------------   --------------------



           ************************************************************
           *        Program running with 24 parallel MPI-processes    *
           *              working on a common directory               *
           ************************************************************
------------------------------------------------------------------------------
                         ORCA SCF GRADIENT CALCULATION
------------------------------------------------------------------------------

Gradient of the Kohn-Sham DFT energy:
Kohn-Sham wavefunction type      ... UKS
Hartree-Fock exchange scaling    ...    0.000
Number of operators              ...    2
Number of atoms                  ...    2
Basis set dimensions             ...  139
Integral neglect threshold       ... 2.5e-11
Integral primitive cutoff        ... 2.5e-12

Nuclear repulsion gradient       ... done
One Electron Gradient            ... done
Pre-screening matrix             ... done
RI-J gradient                    ... done
Exchange-correlation gradient    ... done
Dispersion correction            ... done

------------------
CARTESIAN GRADIENT
------------------

   1   Mn  :    0.000000006   -0.000000002   -0.095729064
   2   O   :    0.000000002    0.000000002    0.094113428

Difference to translation invariance:
           :    0.0000000082   -0.0000000002   -0.0016156363

Norm of the cartesian gradient     ...    0.1342437743
RMS gradient                       ...    0.0548047914
MAX gradient                       ...    0.0957290640

-------
TIMINGS
-------

Total SCF gradient time            ...        4.279 sec

One electron gradient       ....       0.057 sec  (  1.3%)
Prescreening matrices       ....       3.416 sec  ( 79.8%)
RI-J Coulomb gradient       ....       0.236 sec  (  5.5%)
XC gradient                 ....       0.048 sec  (  1.1%)
------------------------------------------------------------------------------
                         ORCA GEOMETRY RELAXATION STEP
------------------------------------------------------------------------------

Reading the OPT-File                    .... done
Getting information on internals        .... done
Copying old internal coords+grads       .... done
Making the new internal coordinates     .... (new redundants).... done
Validating the new internal coordinates .... (new redundants).... done
Calculating the B-matrix                .... done
Calculating the G,G- and P matrices     .... done
Transforming gradient to internals      .... done
Projecting the internal gradient        .... done
Number of atoms                         ....   2
Number of internal coordinates          ....   1
Current Energy                          .... -1226.277539551 Eh
Current gradient norm                   ....     0.134243774 Eh/bohr
Maximum allowed component of the step   ....  0.300
Current trust radius                    ....  0.300
Updating the Hessian (BFGS)             .... done
Forming the augmented Hessian           .... done
Diagonalizing the augmented Hessian     .... done
Last element of RFO vector              ....  0.738384877
Lowest eigenvalues of augmented Hessian:
 -0.086693199
Length of the computed step             ....  0.913317118
Warning: the length of the step is outside the trust region - taking restricted step instead
The input lambda is                     ....    -0.086693
   iter:   1  x=   -0.133052  g=   16.052082 f(x)=     0.744148
   iter:   2  x=   -0.191242  g=    5.308587 f(x)=     0.308910
   iter:   3  x=   -0.250226  g=    1.988697 f(x)=     0.117301
   iter:   4  x=   -0.288397  g=    0.941815 f(x)=     0.035950
   iter:   5  x=   -0.298624  g=    0.631176 f(x)=     0.006454
   iter:   6  x=   -0.299166  g=    0.571835 f(x)=     0.000310
   iter:   7  x=   -0.299167  g=    0.568900 f(x)=     0.000001
   iter:   8  x=   -0.299167  g=    0.568893 f(x)=     0.000000
   iter:   9  x=   -0.299167  g=    0.568893 f(x)=     0.000000
The output lambda is                    ....    -0.299167 (9 iterations)
The final length of the internal step   ....  0.300000000
Converting the step to cartesian space:
 Initial RMS(Int)=    0.3000000000
Transforming coordinates:
 Iter   0:  RMS(Cart)=    0.0866025404 RMS(Int)=    0.3000000000
 Iter   1:  RMS(Cart)=    0.0000000000 RMS(Int)=    0.0000000000
done
Storing new coordinates                 .... done

                                .--------------------.
          ----------------------|Geometry convergence|-------------------------
          Item                value                   Tolerance       Converged
          ---------------------------------------------------------------------
          Energy change      -0.0152081034            0.0000050000      NO
          RMS gradient        0.0949212458            0.0001000000      NO
          MAX gradient        0.0949212458            0.0003000000      NO
          RMS step            0.3000000000            0.0020000000      NO
          MAX step            0.3000000000            0.0040000000      NO
          ........................................................
          Max(Bonds)      0.1588      Max(Angles)    0.00
          Max(Dihed)        0.00      Max(Improp)    0.00
          ---------------------------------------------------------------------

The optimization has not yet converged - more geometry cycles are needed


    ---------------------------------------------------------------------------
                         Redundant Internal Coordinates
                            (Angstroem and degrees)

        Definition                    Value    dE/dq     Step     New-Value
    ----------------------------------------------------------------------------
     1. B(O   1,Mn  0)                1.9163  0.094921 -0.1588    1.7576   
    ----------------------------------------------------------------------------

         *************************************************************
         *                GEOMETRY OPTIMIZATION CYCLE   3            *
         *************************************************************
---------------------------------
CARTESIAN COORDINATES (ANGSTROEM)
---------------------------------
  Mn     0.000000    0.000000    0.121203
  O      0.000000    0.000000    1.878797

----------------------------
CARTESIAN COORDINATES (A.U.)
----------------------------
  NO LB      ZA    FRAG     MASS         X           Y           Z
   0 Mn   25.0000    0    54.940    0.000000    0.000000    0.229041
   1 O     8.0000    0    15.999    0.000000    0.000000    3.550412

--------------------------------
INTERNAL COORDINATES (ANGSTROEM)
--------------------------------
 Mn     0   0   0     0.000000000000     0.00000000     0.00000000
 O      1   0   0     1.757593929176     0.00000000     0.00000000

---------------------------
INTERNAL COORDINATES (A.U.)
---------------------------
 Mn     0   0   0     0.000000000000     0.00000000     0.00000000
 O      1   0   0     3.321371180785     0.00000000     0.00000000



           ************************************************************
           *        Program running with 24 parallel MPI-processes    *
           *              working on a common directory               *
           ************************************************************
 One Electron integrals                  ... done
 Pre-screening matrix                    ... done


           ************************************************************
           *        Program running with 24 parallel MPI-processes    *
           *              working on a common directory               *
           ************************************************************

Diagonalization of the overlap matrix:
Smallest eigenvalue                        ... 4.457e-05
Time for diagonalization                   ...    0.005 sec
Threshold for overlap eigenvalues          ... 1.000e-08
Number of eigenvalues below threshold      ... 0
Time for construction of square roots      ...    0.002 sec
Total time needed                          ...    0.007 sec

-------------------
DFT GRID GENERATION
-------------------

General Integration Accuracy     IntAcc      ...  4.340
Radial Grid Type                 RadialGrid  ... Gauss-Chebyshev
Angular Grid (max. acc.)         AngularGrid ... Lebedev-110
Angular grid pruning method      GridPruning ... 3 (G Style)
Weight generation scheme         WeightScheme... Becke
Basis function cutoff            BFCut       ...    1.0000e-11
Integration weight cutoff        WCut        ...    1.0000e-14
Grids for H and He will be reduced by one unit

# of grid points (after initial pruning)     ...   4628 (   0.0 sec)
# of grid points (after weights+screening)   ...   4603 (   0.0 sec)
nearest neighbour list constructed           ...    0.0 sec
Grid point re-assignment to atoms done       ...    0.0 sec
Grid point division into batches done        ...    0.0 sec
Reduced shell lists constructed in    0.0 sec

Total number of grid points                  ...     4603
Total number of batches                      ...       73
Average number of points per batch           ...       63
Average number of grid points per atom       ...     2302
Average number of shells per batch           ...    22.40 (57.44%)
Average number of basis functions per batch  ...    72.00 (51.80%)
Average number of large shells per batch     ...    18.00 (80.36%)
Average number of large basis fcns per batch ...    54.80 (76.11%)
Maximum spatial batch extension              ...  19.55, 28.73, 15.95 au
Average spatial batch extension              ...   1.01,  1.33,  0.87 au

Time for grid setup =    0.017 sec

--------------
SCF ITERATIONS
--------------
ITER       Energy         Delta-E        Max-DP      RMS-DP      [F,P]     Damp
               ***  Starting incremental Fock matrix formation  ***
  0  -1226.2995723442   0.000000000000 0.01049382  0.00018003  0.0270563 0.7000
  1  -1226.3007557000  -0.001183355761 0.01117139  0.00019198  0.0133533 0.7000
                               ***Turning on DIIS***
  2  -1226.3015608665  -0.000805166585 0.02738846  0.00051226  0.0105903 0.0000
  3  -1226.3036465390  -0.002085672412 0.01218822  0.00020927  0.0129790 0.0000
  4  -1226.3038569765  -0.000210437516 0.00853981  0.00017834  0.0115129 0.0000
  5  -1226.3041350212  -0.000278044705 0.00416997  0.00007347  0.0022405 0.0000
  6  -1226.3041965574  -0.000061536189 0.00298919  0.00004576  0.0013671 0.0000
  7  -1226.3042252057  -0.000028648310 0.00282749  0.00002648  0.0014920 0.0000
  8  -1226.3042458919  -0.000020686260 0.00562520  0.00005282  0.0007509 0.0000
  9  -1226.3042663481  -0.000020456120 0.00077510  0.00001030  0.0002834 0.0000
 10  -1226.3042672730  -0.000000924956 0.00044201  0.00000525  0.0003540 0.0000
 11  -1226.3042676719  -0.000000398845 0.00010648  0.00000181  0.0000936 0.0000
 12  -1226.3042677023  -0.000000030433 0.00012661  0.00000134  0.0000304 0.0000
 13  -1226.3042676591   0.000000043165 0.00004155  0.00000061  0.0000610 0.0000
 14  -1226.3042677084  -0.000000049251 0.00001374  0.00000017  0.0000109 0.0000
 15  -1226.3042676967   0.000000011695 0.00000666  0.00000009  0.0000034 0.0000
                            ***DIIS convergence achieved***

               *****************************************************
               *                     SUCCESS                       *
               *           SCF CONVERGED AFTER  16 CYCLES          *
               *****************************************************

Setting up the final grid:

General Integration Accuracy     IntAcc      ...  4.670
Radial Grid Type                 RadialGrid  ... Gauss-Chebyshev
Angular Grid (max. acc.)         AngularGrid ... Lebedev-302
Angular grid pruning method      GridPruning ... 3 (G Style)
Weight generation scheme         WeightScheme... Becke
Basis function cutoff            BFCut       ...    1.0000e-11
Integration weight cutoff        WCut        ...    1.0000e-14
Grids for H and He will be reduced by one unit

# of grid points (after initial pruning)     ...  15876 (   0.0 sec)
# of grid points (after weights+screening)   ...  15835 (   0.0 sec)
nearest neighbour list constructed           ...    0.0 sec
Grid point re-assignment to atoms done       ...    0.0 sec
Grid point division into batches done        ...    0.1 sec
Reduced shell lists constructed in    0.1 sec

Total number of grid points                  ...    15835
Total number of batches                      ...      248
Average number of points per batch           ...       63
Average number of grid points per atom       ...     7918
Average number of shells per batch           ...    17.00 (43.59%)
Average number of basis functions per batch  ...    42.00 (30.22%)
Average number of large shells per batch     ...     9.92 (58.33%)
Average number of large basis fcns per batch ...    24.25 (57.74%)
Maximum spatial batch extension              ...  28.57, 31.41, 18.45 au
Average spatial batch extension              ...   0.89,  0.95,  0.67 au

Final grid set up in    0.1 sec
Final integration                            ... done (   0.1 sec)
Change in XC energy                          ...     0.002576496
Integrated number of electrons               ...    33.000005128
Previous integrated no of electrons          ...    33.000506004
Total Energy       :        -1226.30169118 Eh          -33369.36548 eV
  Last Energy change         ...    2.0823e-08  Tolerance :   1.0000e-08
  Last MAX-Density change    ...    3.4484e-06  Tolerance :   1.0000e-07
             **** THE GBW FILE WAS UPDATED (29_MnO.gbw) ****
             **** DENSITY FILE WAS UPDATED (29_MnO.scfp) ****
             **** ENERGY FILE WAS UPDATED (29_MnO.en.tmp) ****
----------------------
UHF SPIN CONTAMINATION
----------------------

Warning: in a DFT calculation there is little theoretical justification to 
         calculate <S**2> as in Hartree-Fock theory. We will do it anyways
         but you should keep in mind that the values have only limited relevance

Expectation value of <S**2>     :     8.826630
Ideal value S*(S+1) for S=2.5   :     8.750000
Deviation                       :     0.076630

             **** THE GBW FILE WAS UPDATED (29_MnO.gbw) ****
             **** DENSITY FILE WAS UPDATED (29_MnO.scfp) ****
Total SCF time: 0 days 0 hours 0 min 3 sec 


-------------------------------------------------------------------------------
[...]
 105   0.0000       4.029237       109.6411 
 106   0.0000       4.142250       112.7163 
 107   0.0000       4.142250       112.7163 
 108   0.0000       4.825726       131.3147 
 109   0.0000       5.177751       140.8938 
 110   0.0000       6.121917       166.5858 
 111   0.0000       6.121917       166.5858 
 112   0.0000       6.222376       169.3195 
 113   0.0000       6.235623       169.6799 
 114   0.0000       6.392728       173.9550 
 115   0.0000       6.415864       174.5845 
 116   0.0000       6.415864       174.5845 
 117   0.0000       6.531203       177.7231 
 118   0.0000       6.541551       178.0047 
 119   0.0000       6.771995       184.2754 
 120   0.0000       6.771995       184.2754 
 121   0.0000       7.006415       190.6542 
 122   0.0000       7.268129       197.7758 
 123   0.0000       7.268129       197.7758 
 124   0.0000       7.310659       198.9331 
 125   0.0000       7.311348       198.9519 
 126   0.0000       7.621643       207.3954 
 127   0.0000       7.621643       207.3954 
 128   0.0000       7.841763       213.3852 
 129   0.0000       7.842008       213.3919 
 130   0.0000       7.871584       214.1967 
 131   0.0000       7.871584       214.1967 
 132   0.0000       8.014689       218.0908 
 133   0.0000       8.016072       218.1284 
 134   0.0000       8.026702       218.4177 
 135   0.0000       8.220320       223.6863 
 136   0.0000       8.220320       223.6863 
 137   0.0000       8.274707       225.1662 
 138   0.0000      11.195867       304.6550 

                 SPIN DOWN ORBITALS
  NO   OCC          E(Eh)            E(eV) 
   0   1.0000    -234.694062     -6386.3501 
   1   1.0000     -26.929374      -732.7855 
   2   1.0000     -23.027577      -626.6122 
   3   1.0000     -23.024278      -626.5225 
   4   1.0000     -23.024278      -626.5225 
   5   1.0000     -18.853627      -513.0333 
   6   1.0000      -2.980765       -81.1107 
   7   1.0000      -1.877985       -51.1026 
   8   1.0000      -1.858920       -50.5838 
   9   1.0000      -1.858920       -50.5838 
  10   1.0000      -0.798183       -21.7197 
  11   1.0000      -0.290461        -7.9039 
  12   1.0000      -0.253950        -6.9103 
  13   1.0000      -0.253950        -6.9103 
  14   0.0000      -0.122683        -3.3384 
  15   0.0000      -0.117350        -3.1933 
  16   0.0000      -0.117265        -3.1910 
  17   0.0000      -0.088157        -2.3989 
  18   0.0000      -0.088157        -2.3989 
  19   0.0000      -0.064357        -1.7513 
  20   0.0000       0.008097         0.2203 
  21   0.0000       0.008097         0.2203 
  22   0.0000       0.017130         0.4661 
  23   0.0000       0.019770         0.5380 
  24   0.0000       0.049974         1.3599 
  25   0.0000       0.049974         1.3599 
  26   0.0000       0.069225         1.8837 
  27   0.0000       0.069225         1.8837 
  28   0.0000       0.069876         1.9014 
  29   0.0000       0.071283         1.9397 
  30   0.0000       0.071346         1.9414 
  31   0.0000       0.083038         2.2596 
  32   0.0000       0.125400         3.4123 
  33   0.0000       0.188933         5.1411 
  34   0.0000       0.188933         5.1411 
  35   0.0000       0.199686         5.4337 
  36   0.0000       0.209747         5.7075 
  37   0.0000       0.209747         5.7075 
  38   0.0000       0.241739         6.5781 
  39   0.0000       0.254668         6.9299 
  40   0.0000       0.255789         6.9604 
  41   0.0000       0.269242         7.3265 
  42   0.0000       0.269242         7.3265 
  43   0.0000       0.302047         8.2191 
  44   0.0000       0.468099        12.7376 
  45   0.0000       0.549395        14.9498 
  46   0.0000       0.549910        14.9638 
  47   0.0000       0.564803        15.3691 
  48   0.0000       0.661558        18.0019 
  49   0.0000       0.661558        18.0019 
  50   0.0000       0.681617        18.5477 
  51   0.0000       0.681617        18.5477 
  52   0.0000       0.712844        19.3975 
  53   0.0000       0.760391        20.6913 
  54   0.0000       0.760391        20.6913 
  55   0.0000       0.800275        21.7766 
  56   0.0000       0.800275        21.7766 
  57   0.0000       0.811461        22.0810 
  58   0.0000       0.815999        22.2045 
  59   0.0000       0.816984        22.2313 
  60   0.0000       0.888226        24.1699 
  61   0.0000       0.888226        24.1699 
  62   0.0000       0.976047        26.5596 
  63   0.0000       0.976092        26.5608 
  64   0.0000       1.000372        27.2215 
  65   0.0000       1.112151        30.2632 
  66   0.0000       1.356006        36.8988 
  67   0.0000       1.356006        36.8988 
  68   0.0000       1.470173        40.0055 
  69   0.0000       1.834998        49.9328 
  70   0.0000       1.835734        49.9529 
  71   0.0000       1.849974        50.3403 
  72   0.0000       1.849974        50.3403 
  73   0.0000       1.858097        50.5614 
  74   0.0000       1.891197        51.4621 
  75   0.0000       1.891197        51.4621 
  76   0.0000       2.079852        56.5956 
  77   0.0000       2.082375        56.6643 
  78   0.0000       2.160368        58.7866 
  79   0.0000       2.208441        60.0947 
  80   0.0000       2.208441        60.0947 
  81   0.0000       2.220156        60.4135 
  82   0.0000       2.220156        60.4135 
  83   0.0000       2.296872        62.5011 
  84   0.0000       2.311347        62.8949 
  85   0.0000       2.311467        62.8982 
  86   0.0000       2.629351        71.5483 
  87   0.0000       2.668322        72.6087 
  88   0.0000       2.668607        72.6165 
  89   0.0000       2.672907        72.7335 
  90   0.0000       2.672907        72.7335 
  91   0.0000       2.743280        74.6484 
  92   0.0000       2.743280        74.6484 
  93   0.0000       2.778224        75.5993 
  94   0.0000       2.778224        75.5993 
  95   0.0000       2.991606        81.4057 
  96   0.0000       3.115033        84.7643 
  97   0.0000       3.115128        84.7669 
  98   0.0000       3.168450        86.2179 
  99   0.0000       3.354066        91.2688 
 100   0.0000       3.397201        92.4425 
 101   0.0000       3.397201        92.4425 
 102   0.0000       3.869895       105.3052 
 103   0.0000       3.869959       105.3069 
 104   0.0000       4.077613       110.9575 
 105   0.0000       4.077613       110.9575 
 106   0.0000       4.243265       115.4651 
 107   0.0000       4.243265       115.4651 
 108   0.0000       4.894661       133.1905 
 109   0.0000       5.224778       142.1734 
 110   0.0000       6.140586       167.0938 
 111   0.0000       6.140586       167.0938 
 112   0.0000       6.236257       169.6972 
 113   0.0000       6.250652       170.0889 
 114   0.0000       6.418976       174.6692 
 115   0.0000       6.432292       175.0316 
 116   0.0000       6.432292       175.0316 
 117   0.0000       6.563215       178.5941 
 118   0.0000       6.572954       178.8592 
 119   0.0000       6.798224       184.9891 
 120   0.0000       6.798224       184.9891 
 121   0.0000       7.021955       191.0771 
 122   0.0000       7.458288       202.9503 
 123   0.0000       7.458288       202.9503 
 124   0.0000       7.498092       204.0334 
 125   0.0000       7.498638       204.0483 
 126   0.0000       7.769478       211.4182 
 127   0.0000       7.769478       211.4182 
 128   0.0000       7.976163       217.0424 
 129   0.0000       7.976390       217.0486 
 130   0.0000       8.002627       217.7626 
 131   0.0000       8.002627       217.7626 
 132   0.0000       8.136978       221.4184 
 133   0.0000       8.138101       221.4490 
 134   0.0000       8.156543       221.9508 
 135   0.0000       8.339190       226.9209 
 136   0.0000       8.339190       226.9209 
 137   0.0000       8.382610       228.1024 
 138   0.0000      11.216393       305.2136 

                    ********************************
                    * MULLIKEN POPULATION ANALYSIS *
                    ********************************

--------------------------------------------
MULLIKEN ATOMIC CHARGES AND SPIN POPULATIONS
--------------------------------------------
   0 Mn:    0.583991    4.736371
   1 O :   -0.583991    0.263629
Sum of atomic charges         :   -0.0000000
Sum of atomic spin populations:    5.0000000

-----------------------------------------------------
MULLIKEN REDUCED ORBITAL CHARGES AND SPIN POPULATIONS
-----------------------------------------------------
CHARGE
  0 Mns       :     6.713015  s :     6.713015
      pz      :     4.047395  p :    12.271547
      px      :     4.112076
      py      :     4.112076
      dz2     :     0.971359  d :     5.402427
      dxz     :     1.216380
      dyz     :     1.216380
      dx2y2   :     0.999151
      dxy     :     0.999158
      f0      :     0.005692  f :     0.024680
      f+1     :     0.009331
      f-1     :     0.009331
      f+2     :     0.000164
      f-2     :     0.000162
      f+3     :     0.000000
      f-3     :     0.000000
      g0      :     0.000856  g :     0.004340
      g+1     :     0.001742
      g-1     :     0.001742
      g+2     :    -0.000000
      g-2     :    -0.000000
      g+3     :     0.000000
      g-3     :     0.000000
      g+4     :     0.000000
      g-4     :     0.000000
  1 O s       :     3.957338  s :     3.957338
      pz      :     1.298856  p :     4.602391
      px      :     1.651768
      py      :     1.651768
      dz2     :     0.003971  d :     0.019950
      dxz     :     0.007513
      dyz     :     0.007513
      dx2y2   :     0.000480
      dxy     :     0.000474
      f0      :     0.001518  f :     0.004312
      f+1     :     0.001190
      f-1     :     0.001190
      f+2     :     0.000206
      f-2     :     0.000207
      f+3     :     0.000000
      f-3     :     0.000000

SPIN
  0 Mns       :     0.620490  s :     0.620490
      pz      :     0.014356  p :     0.170463
      px      :     0.078053
      py      :     0.078053
      dz2     :     0.480063  d :     3.943736
      dxz     :     0.732682
      dyz     :     0.732682
      dx2y2   :     0.999151
      dxy     :     0.999158
      f0      :    -0.001342  f :     0.002536
      f+1     :     0.001776
      f-1     :     0.001776
      f+2     :     0.000164
      f-2     :     0.000162
      f+3     :     0.000000
      f-3     :     0.000000
      g0      :    -0.000464  g :    -0.000855
      g+1     :    -0.000195
      g-1     :    -0.000195
      g+2     :    -0.000000
      g-2     :    -0.000000
      g+3     :     0.000000
      g-3     :     0.000000
      g+4     :     0.000000
      g-4     :    -0.000000
  1 O s       :    -0.003274  s :    -0.003274
      pz      :    -0.111486  p :     0.267594
      px      :     0.189540
      py      :     0.189540
      dz2     :     0.001276  d :    -0.000984
      dxz     :    -0.001607
      dyz     :    -0.001607
      dx2y2   :     0.000480
      dxy     :     0.000474
      f0      :     0.000381  f :     0.000294
      f+1     :    -0.000250
      f-1     :    -0.000250
      f+2     :     0.000206
      f-2     :     0.000207
      f+3     :    -0.000000
      f-3     :    -0.000000


                     *******************************
                     * LOEWDIN POPULATION ANALYSIS *
                     *******************************

-------------------------------------------
LOEWDIN ATOMIC CHARGES AND SPIN POPULATIONS
-------------------------------------------
   0 Mn:    0.613943    4.622762
   1 O :   -0.613943    0.377238

----------------------------------------------------
LOEWDIN REDUCED ORBITAL CHARGES AND SPIN POPULATIONS
----------------------------------------------------
CHARGE
  0 Mns       :     6.349139  s :     6.349139
      pz      :     4.124556  p :    12.316988
      px      :     4.096216
      py      :     4.096216
      dz2     :     1.078239  d :     5.444798
      dxz     :     1.197050
      dyz     :     1.197050
      dx2y2   :     0.986230
      dxy     :     0.986230
      f0      :     0.097500  f :     0.236511
      f+1     :     0.068545
      f-1     :     0.068545
      f+2     :     0.000962
      f-2     :     0.000958
      f+3     :     0.000000
      f-3     :     0.000000
      g0      :     0.015154  g :     0.038620
      g+1     :     0.011605
      g-1     :     0.011605
      g+2     :     0.000128
      g-2     :     0.000127
      g+3     :     0.000000
      g-3     :     0.000000
      g+4     :     0.000000
      g-4     :     0.000000
  1 O s       :     3.560606  s :     3.560606
      pz      :     1.530354  p :     4.561660
      px      :     1.515653
      py      :     1.515653
      dz2     :     0.167456  d :     0.319883
      dxz     :     0.069562
      dyz     :     0.069562
      dx2y2   :     0.006651
      dxy     :     0.006652
      f0      :     0.076996  f :     0.171794
      f+1     :     0.041368
      f-1     :     0.041368
      f+2     :     0.006029
      f-2     :     0.006033
      f+3     :     0.000000
      f-3     :     0.000000

SPIN
  0 Mns       :     0.517349  s :     0.517349
      pz      :     0.025668  p :     0.261578
      px      :     0.117955
      py      :     0.117955
      dz2     :     0.459419  d :     3.801308
      dxz     :     0.684715
      dyz     :     0.684715
      dx2y2   :     0.986230
      dxy     :     0.986230
      f0      :    -0.000647  f :     0.037573
      f+1     :     0.018150
      f-1     :     0.018150
      f+2     :     0.000962
      f-2     :     0.000958
      f+3     :     0.000000
      f-3     :     0.000000
      g0      :    -0.000901  g :     0.004954
      g+1     :     0.002800
      g-1     :     0.002800
      g+2     :     0.000128
      g-2     :     0.000127
      g+3     :     0.000000
      g-3     :     0.000000
      g+4     :     0.000000
      g-4     :    -0.000000
  1 O s       :     0.031319  s :     0.031319
      pz      :    -0.038967  p :     0.245138
      px      :     0.142052
      py      :     0.142052
      dz2     :     0.003236  d :     0.055921
      dxz     :     0.019691
      dyz     :     0.019691
      dx2y2   :     0.006651
      dxy     :     0.006652
      f0      :     0.003525  f :     0.044861
      f+1     :     0.014637
      f-1     :     0.014637
      f+2     :     0.006029
      f-2     :     0.006033
      f+3     :    -0.000000
      f-3     :    -0.000000


                      *****************************
                      * MAYER POPULATION ANALYSIS *
                      *****************************

  NA   - Mulliken gross atomic population
  ZA   - Total nuclear charge
  QA   - Mulliken gross atomic charge
  VA   - Mayer's total valence
  BVA  - Mayer's bonded valence
  FA   - Mayer's free valence

  ATOM       NA         ZA         QA         VA         BVA        FA
  0 Mn    24.4160    25.0000     0.5840     6.2614     2.0617     4.1996
  1 O      8.5840     8.0000    -0.5840     2.1567     2.0617     0.0950

  Mayer bond orders larger than 0.100000
B(  0-Mn,  1-O ) :   2.0617 

-------
TIMINGS
-------

Total SCF time: 0 days 0 hours 0 min 1 sec 

Total time                  ....       1.607 sec
Sum of individual times     ....       1.431 sec  ( 89.0%)

Fock matrix formation       ....       1.236 sec  ( 76.9%)
  Split-RI-J                ....       0.901 sec  ( 72.9% of F)
  XC integration            ....       0.221 sec  ( 17.9% of F)
    Basis function eval.    ....       0.017 sec  (  7.9% of XC)
    Density eval.           ....       0.021 sec  (  9.6% of XC)
    XC-Functional eval.     ....       0.005 sec  (  2.1% of XC)
    XC-Potential eval.      ....       0.056 sec  ( 25.3% of XC)
Diagonalization             ....       0.034 sec  (  2.1%)
Density matrix formation    ....       0.005 sec  (  0.3%)
Population analysis         ....       0.008 sec  (  0.5%)
Initial guess               ....       0.014 sec  (  0.9%)
Orbital Transformation      ....       0.000 sec  (  0.0%)
Orbital Orthonormalization  ....       0.009 sec  (  0.5%)
DIIS solution               ....       0.008 sec  (  0.5%)
Grid generation             ....       0.125 sec  (  7.8%)


-------------------------------------------------------------------------------
                          DFT DISPERSION CORRECTION                            
                                                                               
                              DFTD3 V3.1  Rev 1                                
                          USING Becke-Johnson damping                          
-------------------------------------------------------------------------------
The TPSS functional is recognized
Active option DFTDOPT                   ...         4   

molecular C6(AA) [au] = 391.957748 


            DFT-D V3
 parameters
 s6 scaling factor         :     1.0000 
 a1 scaling factor         :     0.4535 
 s8 scaling factor         :     1.9435 
 a2 scaling factor         :     4.4752 
 ad hoc parameters k1-k3   :    16.0000     1.3333    -4.0000 

 Edisp/kcal,au: -0.467144167035  -0.000744441537 
 E6   /kcal   :  -0.182685214 
 E8   /kcal   :  -0.284458953 
 % E8         :  60.893183093 

-------------------------   ----------------
Dispersion correction           -0.000744442
-------------------------   ----------------


-------------------------   --------------------
FINAL SINGLE POINT ENERGY     -1226.311297997095
-------------------------   --------------------

                                *** OPTIMIZATION RUN DONE ***

                            ***************************************
                            *     ORCA property calculations      *
                            ***************************************

                                    ---------------------
                                    Active property flags
                                    ---------------------
   (+) Dipole Moment


------------------------------------------------------------------------------
                       ORCA ELECTRIC PROPERTIES CALCULATION
------------------------------------------------------------------------------

Dipole Moment Calculation                       ... on
Quadrupole Moment Calculation                   ... off
Polarizability Calculation                      ... off
GBWName                                         ... 29_MnO.gbw
Electron density file                           ... 29_MnO.scfp
The origin for moment calculation is the CENTER OF MASS  = ( 0.000000,  0.000000  1.044799)

-------------
DIPOLE MOMENT
-------------
                                X             Y             Z
Electronic contribution:     -0.00000       0.00000      -3.44804
Nuclear contribution   :      0.00000       0.00000       1.71606
                        -----------------------------------------
Total Dipole Moment    :     -0.00000       0.00000      -1.73198
                        -----------------------------------------
Magnitude (a.u.)       :      1.73198
Magnitude (Debye)      :      4.40233



--------------------
Rotational spectrum 
--------------------
 
Rotational constants in cm-1:     0.000000     0.512677     0.512677 
Rotational constants in MHz :     0.000000 15369.677147 15369.677147 

 Dipole components along the rotational axes: 
x,y,z [a.u.] :    -1.731975     0.000000    -0.000000 
x,y,z [Debye]:    -4.402331     0.000000    -0.000000 

 

Timings for individual modules:

Sum of individual times         ...       82.016 sec (=   1.367 min)
GTO integral calculation        ...       20.827 sec (=   0.347 min)  25.4 %
SCF iterations                  ...       28.361 sec (=   0.473 min)  34.6 %
SCF Gradient evaluation         ...       32.596 sec (=   0.543 min)  39.7 %
Geometry relaxation             ...        0.233 sec (=   0.004 min)   0.3 %
                             ****ORCA TERMINATED NORMALLY****
TOTAL RUN TIME: 0 days 0 hours 1 minutes 23 seconds 42 msec
