
                                 *****************
                                 * O   R   C   A *
                                 *****************

           --- An Ab Initio, DFT and Semiempirical electronic structure package ---

                  #######################################################
                  #                        -***-                        #
                  #          Department of theory and spectroscopy      #
                  #               Directorship: Frank Neese             #
                  #        Max Planck Institute fuer Kohlenforschung    #
                  #                Kaiser Wilhelm Platz 1               #
                  #                 D-45470 Muelheim/Ruhr               #
                  #                      Germany                        #
                  #                                                     #
                  #                  All rights reserved                #
                  #                        -***-                        #
                  #######################################################


                         Program Version 4.2.0 -  RELEASE  -


 With contributions from (in alphabetic order):
   Daniel Aravena         : Magnetic Suceptibility
   Michael Atanasov       : Ab Initio Ligand Field Theory (pilot matlab implementation)
   Alexander A. Auer      : GIAO ZORA, VPT2
   Ute Becker             : Parallelization
   Giovanni Bistoni       : ED, misc. LED, open-shell LED, HFLED
   Martin Brehm           : Molecular dynamics
   Dmytro Bykov           : SCF Hessian
   Vijay G. Chilkuri      : MRCI spin determinant printing, contributions to CSF-ICE
   Dipayan Datta          : RHF DLPNO-CCSD density
   Achintya Kumar Dutta   : EOM-CC, STEOM-CC
   Dmitry Ganyushin       : Spin-Orbit,Spin-Spin,Magnetic field MRCI
   Miquel Garcia          : C-PCM Hessian, Gaussian charge scheme
   Yang Guo               : DLPNO-NEVPT2, CIM, IAO-localization
   Andreas Hansen         : Spin unrestricted coupled pair/coupled cluster methods
   Benjamin Helmich-Paris : CASSCF linear response (MC-RPA)
   Lee Huntington         : MR-EOM, pCC
   Robert Izsak           : Overlap fitted RIJCOSX, COSX-SCS-MP3, EOM
   Christian Kollmar      : KDIIS, OOCD, Brueckner-CCSD(T), CCSD density
   Simone Kossmann        : Meta GGA functionals, TD-DFT gradient, OOMP2, MP2 Hessian
   Martin Krupicka        : AUTO-CI
   Lucas Lang             : DCDCAS
   Dagmar Lenk            : GEPOL surface, SMD
   Dimitrios Liakos       : Extrapolation schemes; Compound Job, initial MDCI parallelization
   Dimitrios Manganas     : Further ROCIS development; embedding schemes
   Dimitrios Pantazis     : SARC Basis sets
   Taras Petrenko         : DFT Hessian,TD-DFT gradient, ASA, ECA, R-Raman, ABS, FL, XAS/XES, NRVS
   Peter Pinski           : DLPNO-MP2, DLPNO-MP2 Gradient
   Christoph Reimann      : Effective Core Potentials
   Marius Retegan         : Local ZFS, SOC
   Christoph Riplinger    : Optimizer, TS searches, QM/MM, DLPNO-CCSD(T), (RO)-DLPNO pert. Triples
   Tobias Risthaus        : Range-separated hybrids, TD-DFT gradient, RPA, STAB
   Michael Roemelt        : Original ROCIS implementation
   Masaaki Saitow         : Open-shell DLPNO-CCSD energy and density
   Barbara Sandhoefer     : DKH picture change effects
   Avijit Sen             : IP-ROCIS
   Kantharuban Sivalingam : CASSCF convergence, NEVPT2, FIC-MRCI
   Bernardo de Souza      : ESD, SOC TD-DFT
   Georgi Stoychev        : AutoAux, RI-MP2 NMR
   Willem Van den Heuvel  : Paramagnetic NMR
   Boris Wezisla          : Elementary symmetry handling
   Frank Wennmohs         : Technical directorship


 We gratefully acknowledge several colleagues who have allowed us to
 interface, adapt or use parts of their codes:
   Stefan Grimme, W. Hujo, H. Kruse,             : VdW corrections, initial TS optimization,
                  C. Bannwarth                     DFT functionals, gCP, sTDA/sTD-DF
   Ed Valeev, F. Pavosevic, A. Kumar             : LibInt (2-el integral package), F12 methods
   Garnet Chan, S. Sharma, J. Yang, R. Olivares  : DMRG
   Ulf Ekstrom                                   : XCFun DFT Library
   Mihaly Kallay                                 : mrcc  (arbitrary order and MRCC methods)
   Andreas Klamt, Michael Diedenhofen            : otool_cosmo (COSMO solvation model)
   Jiri Pittner, Ondrej Demel                    : Mk-CCSD
   Frank Weinhold                                : gennbo (NPA and NBO analysis)
   Christopher J. Cramer and Donald G. Truhlar   : smd solvation model
   Lars Goerigk                                  : TD-DFT with DH, B97 family of functionals
   V. Asgeirsson, H. Jonsson                     : NEB implementation
   FAccTs GmbH                                   : IRC, NEB, NEB-TS, Multilevel, MM, QM/MM, CI optimization
   S Lehtola, MJT Oliveira, MAL Marques          : LibXC Library


 Your calculation uses the libint2 library for the computation of 2-el integrals
 For citations please refer to: http://libint.valeyev.net

 Your ORCA version has been built with support for libXC version: 4.2.3
 For citations please refer to: https://tddft.org/programs/libxc/

 This ORCA versions uses:
   CBLAS   interface :  Fast vector & matrix operations
   LAPACKE interface :  Fast linear algebra routines
   SCALAPACK package :  Parallel linear algebra routines


Your calculation utilizes the atom-pairwise dispersion correction
with the Becke-Johnson damping scheme (D3BJ)
Cite in your paper:
S.Grimme, S.Ehrlich, L.Goerigk, J Comput Chem, (2011), 32, 1456–1465 
S.Grimme, J.Antony, S.Ehrlich and H.Krieg, J.Chem.Phys., 132, (2010), 154104 
   

----- Orbital basis set information -----
Your calculation utilizes the basis: aug-cc-pVTZ 
    H, B-Ne : Obtained from the ccRepo (grant-hill.group.shef.ac.uk/ccrepo) Feb. 2017
              R. A. Kendall, T. H. Dunning, Jr., R. J. Harrison, J. Chem. Phys. 96, 6796 (1992)
         He : Obtained from the ccRepo (grant-hill.group.shef.ac.uk/ccrepo) Feb. 2017
              D. E. Woon, T. H. Dunning, Jr., J. Chem. Phys. 100, 2975 (1994)
  Li-Be, Na : Obtained from the ccRepo (grant-hill.group.shef.ac.uk/ccrepo) Feb. 2017
              B. P. Prascher, D. E. Woon, K. A. Peterson, T. H. Dunning, Jr., A. K. Wilson, Theor. Chem. Acc. 128, 69 (2011)
         Mg : Obtained from the Peterson Research Group Website (tyr0.chem.wsu.edu/~kipeters) Feb. 2017
              B. P. Prascher, D. E. Woon, K. A. Peterson, T. H. Dunning, Jr., A. K. Wilson, Theor. Chem. Acc. 128, 69 (2011)
      Al-Ar : Obtained from the ccRepo (grant-hill.group.shef.ac.uk/ccrepo) Feb. 2017
              D. E. Woon, T. H. Dunning, Jr., J. Chem. Phys. 98, 1358 (1993)
      Sc-Zn : Obtained from the ccRepo (grant-hill.group.shef.ac.uk/ccrepo) Feb. 2017
              N. B. Balabanov, K. A. Peterson, J. Chem. Phys. 123, 064107 (2005)
              N. B. Balabanov, K. A. Peterson, J. Chem. Phys. 125, 074110 (2006)
      Ga-Kr : Obtained from the ccRepo (grant-hill.group.shef.ac.uk/ccrepo) Feb. 2017
              A. K. Wilson, D. E. Woon, K. A. Peterson, T. H. Dunning, Jr., J. Chem. Phys. 110, 7667 (1999)
     Ag, Au : Obtained from the Peterson Research Group Website (tyr0.chem.wsu.edu/~kipeters) Feb. 2017
              K. A. Peterson, C. Puzzarini, Theor. Chem. Acc. 114, 283 (2005)

----- AuxJ basis set information -----
Your calculation utilizes the auxiliary basis: def2/J
   F. Weigend, Phys. Chem. Chem. Phys. 8, 1057 (2006).

================================================================================
                                        WARNINGS
                       Please study these warnings very carefully!
================================================================================


WARNING: your system is open-shell and RHF/RKS was chosen
  ===> : WILL SWITCH to UHF/UKS


WARNING: Geometry Optimization
  ===> : Switching off AutoStart
         For restart on a previous wavefunction, please use MOREAD

INFO   : the flag for use of LIBINT has been found!

================================================================================
                                       INPUT FILE
================================================================================
NAME = 31_FeH.in
|  1> #
|  2> # 31_FeH tpss/aug-cc-pvtz
|  3> #
|  4> ! tpss d3bj aug-cc-pvtz def2/j opt xyzfile
|  5> 
|  6> *xyz 0 4
|  7> Fe 0.0 0.0 0.0
|  8> H 0.0 0.0 2.0
|  9> *
| 10> 
| 11> %pal
| 12> nprocs 24
| 13> end
| 14> 
| 15> 
| 16>                          ****END OF INPUT****
================================================================================

                       *****************************
                       * Geometry Optimization Run *
                       *****************************

Geometry optimization settings:
Update method            Update   .... BFGS
Choice of coordinates    CoordSys .... Z-matrix Internals
Initial Hessian          InHess   .... Almoef's Model

Convergence Tolerances:
Energy Change            TolE     ....  5.0000e-06 Eh
Max. Gradient            TolMAXG  ....  3.0000e-04 Eh/bohr
RMS Gradient             TolRMSG  ....  1.0000e-04 Eh/bohr
Max. Displacement        TolMAXD  ....  4.0000e-03 bohr
RMS Displacement         TolRMSD  ....  2.0000e-03 bohr
Strict Convergence                ....  False
------------------------------------------------------------------------------
                        ORCA OPTIMIZATION COORDINATE SETUP
------------------------------------------------------------------------------

The optimization will be done in new redundant internal coordinates
Making redundant internal coordinates   ...  (new redundants) done
Evaluating the initial hessian          ...  (Almloef) done
Evaluating the coordinates              ...  done
Calculating the B-matrix                .... done
Calculating the G-matrix                .... done
Diagonalizing the G-matrix              .... done
The first mode is                       ....    0
The number of degrees of freedom        ....    1

    -----------------------------------------------------------------
                    Redundant Internal Coordinates


    -----------------------------------------------------------------
         Definition                    Initial Value    Approx d2E/dq
    -----------------------------------------------------------------
      1. B(H   1,Fe  0)                  2.0000         0.128736   
    -----------------------------------------------------------------

Number of atoms                         .... 2
Number of degrees of freedom            .... 1

         *************************************************************
         *                GEOMETRY OPTIMIZATION CYCLE   1            *
         *************************************************************
---------------------------------
CARTESIAN COORDINATES (ANGSTROEM)
---------------------------------
  Fe     0.000000    0.000000    0.000000
  H      0.000000    0.000000    2.000000

----------------------------
CARTESIAN COORDINATES (A.U.)
----------------------------
  NO LB      ZA    FRAG     MASS         X           Y           Z
   0 Fe   26.0000    0    55.850    0.000000    0.000000    0.000000
   1 H     1.0000    0     1.008    0.000000    0.000000    3.779452

--------------------------------
INTERNAL COORDINATES (ANGSTROEM)
--------------------------------
 Fe     0   0   0     0.000000000000     0.00000000     0.00000000
 H      1   0   0     2.000000000000     0.00000000     0.00000000

---------------------------
INTERNAL COORDINATES (A.U.)
---------------------------
 Fe     0   0   0     0.000000000000     0.00000000     0.00000000
 H      1   0   0     3.779452267843     0.00000000     0.00000000

---------------------
BASIS SET INFORMATION
---------------------
There are 2 groups of distinct atoms

 Group   1 Type Fe  : 116s77p23d3f2g contracted to 8s7p5d3f2g pattern {19191919191911/151515151511/77711/111/11}
 Group   2 Type H   : 6s3p2d contracted to 4s3p2d pattern {3111/111/11}

Atom   0Fe   basis set group =>   1
Atom   1H    basis set group =>   2
---------------------------------
AUXILIARY/J BASIS SET INFORMATION
---------------------------------
There are 2 groups of distinct atoms

 Group   1 Type Fe  : 19s5p5d3f3g contracted to 8s5p5d2f3g pattern {121111111/11111/11111/21/111}
 Group   2 Type H   : 5s2p1d contracted to 3s1p1d pattern {311/2/1}

Atom   0Fe   basis set group =>   1
Atom   1H    basis set group =>   2


           ************************************************************
           *        Program running with 24 parallel MPI-processes    *
           *              working on a common directory               *
           ************************************************************
------------------------------------------------------------------------------
                           ORCA GTO INTEGRAL CALCULATION
                           -- RI-GTO INTEGRALS CHOSEN --
------------------------------------------------------------------------------

                         BASIS SET STATISTICS AND STARTUP INFO

Gaussian basis set:
 # of primitive gaussian shells          ...  232
 # of primitive gaussian functions       ...  526
 # of contracted shells                  ...   34
 # of contracted basis functions         ...  116
 Highest angular momentum                ...    4
 Maximum contraction depth               ...   19
Auxiliary gaussian basis set:
 # of primitive gaussian shells          ...   43
 # of primitive gaussian functions       ...  123
 # of contracted shells                  ...   28
 # of contracted aux-basis functions     ...  100
 Highest angular momentum                ...    4
 Maximum contraction depth               ...   12
Ratio of auxiliary to basis functions    ...  0.86
Integral package used                  ... LIBINT
 One Electron integrals                  ... done
 Ordering auxiliary basis shells         ... done
 Integral threshhold             Thresh  ...  2.500e-11
 Primitive cut-off               TCut    ...  2.500e-12
 Pre-screening matrix                    ... done
 Shell pair data                         ... 
 Ordering of the shell pairs             ... done (   0.000 sec) 595 of 595 pairs
 Determination of significant pairs      ... done (   0.000 sec)
 Creation of shell pair data             ... done (   0.001 sec)
 Storage of shell pair data              ... done (   0.036 sec)
 Shell pair data done in (   0.037 sec)
 Computing two index integrals           ... done
 Cholesky decomposition of the V-matrix  ... done


Timings:
 Total evaluation time                   ...   2.104 sec (  0.035 min)
 One electron matrix time                ...   0.036 sec (  0.001 min) =  1.7%
 Schwartz matrix evaluation time         ...   1.993 sec (  0.033 min) = 94.8%
 Two index repulsion integral time       ...   0.000 sec (  0.000 min) =  0.0%
 Cholesky decomposition of V             ...   0.009 sec (  0.000 min) =  0.4%
 Three index repulsion integral time     ...   0.000 sec (  0.000 min) =  0.0%



           ************************************************************
           *        Program running with 24 parallel MPI-processes    *
           *              working on a common directory               *
           ************************************************************
-------------------------------------------------------------------------------
                                 ORCA SCF
-------------------------------------------------------------------------------

------------
SCF SETTINGS
------------
Hamiltonian:
 Density Functional     Method          .... DFT(GTOs)
 Exchange Functional    Exchange        .... TPSS
 Correlation Functional Correlation     .... TPSS
 LDA part of GGA corr.  LDAOpt          .... PW91-LDA
 Gradients option       PostSCFGGA      .... off
   Density functional embedding theory  .... OFF
   NL short-range parameter             ....  5.000000
 RI-approximation to the Coulomb term is turned on
   Number of auxiliary basis functions  .... 100


General Settings:
 Integral files         IntName         .... 31_FeH
 Hartree-Fock type      HFTyp           .... UHF
 Total Charge           Charge          ....    0
 Multiplicity           Mult            ....    4
 Number of Electrons    NEL             ....   27
 Basis Dimension        Dim             ....  116
 Nuclear Repulsion      ENuc            ....      6.8793037079 Eh

Convergence Acceleration:
 DIIS                   CNVDIIS         .... on
   Start iteration      DIISMaxIt       ....    12
   Startup error        DIISStart       ....  0.200000
   # of expansion vecs  DIISMaxEq       ....     5
   Bias factor          DIISBfac        ....   1.050
   Max. coefficient     DIISMaxC        ....  10.000
 Newton-Raphson         CNVNR           .... off
 SOSCF                  CNVSOSCF        .... off
 Level Shifting         CNVShift        .... on
   Level shift para.    LevelShift      ....    0.2500
   Turn off err/grad.   ShiftErr        ....    0.0010
 Zerner damping         CNVZerner       .... off
 Static damping         CNVDamp         .... on
   Fraction old density DampFac         ....    0.7000
   Max. Damping (<1)    DampMax         ....    0.9800
   Min. Damping (>=0)   DampMin         ....    0.0000
   Turn off err/grad.   DampErr         ....    0.1000
 Fernandez-Rico         CNVRico         .... off

SCF Procedure:
 Maximum # iterations   MaxIter         ....   125
 SCF integral mode      SCFMode         .... Direct
   Integral package                     .... LIBINT
 Reset frequency        DirectResetFreq ....    20
 Integral Threshold     Thresh          ....  2.500e-11 Eh
 Primitive CutOff       TCut            ....  2.500e-12 Eh

Convergence Tolerance:
 Convergence Check Mode ConvCheckMode   .... Total+1el-Energy
 Convergence forced     ConvForced      .... 0
 Energy Change          TolE            ....  1.000e-08 Eh
 1-El. energy change                    ....  1.000e-05 Eh
 DIIS Error             TolErr          ....  5.000e-07


Diagonalization of the overlap matrix:
Smallest eigenvalue                        ... 1.489e-04
Time for diagonalization                   ...    0.004 sec
Threshold for overlap eigenvalues          ... 1.000e-08
Number of eigenvalues below threshold      ... 0
Time for construction of square roots      ...    0.002 sec
Total time needed                          ...    0.006 sec

-------------------
DFT GRID GENERATION
-------------------

General Integration Accuracy     IntAcc      ...  4.340
Radial Grid Type                 RadialGrid  ... Gauss-Chebyshev
Angular Grid (max. acc.)         AngularGrid ... Lebedev-110
Angular grid pruning method      GridPruning ... 3 (G Style)
Weight generation scheme         WeightScheme... Becke
Basis function cutoff            BFCut       ...    1.0000e-11
Integration weight cutoff        WCut        ...    1.0000e-14
Grids for H and He will be reduced by one unit

# of grid points (after initial pruning)     ...   3706 (   0.0 sec)
# of grid points (after weights+screening)   ...   3685 (   0.0 sec)
nearest neighbour list constructed           ...    0.0 sec
Grid point re-assignment to atoms done       ...    0.0 sec
Grid point division into batches done        ...    0.0 sec
Reduced shell lists constructed in    0.0 sec

Total number of grid points                  ...     3685
Total number of batches                      ...       58
Average number of points per batch           ...       63
Average number of grid points per atom       ...     1842
Average number of shells per batch           ...    20.25 (59.56%)
Average number of basis functions per batch  ...    56.25 (48.49%)
Average number of large shells per batch     ...    15.75 (77.78%)
Average number of large basis fcns per batch ...    45.75 (81.33%)
Maximum spatial batch extension              ...  26.53, 28.73, 20.39 au
Average spatial batch extension              ...   1.14,  1.34,  0.91 au

Time for grid setup =    0.022 sec

------------------------------
INITIAL GUESS: MODEL POTENTIAL
------------------------------
Loading Hartree-Fock densities                     ... done
Calculating cut-offs                               ... done
Setting up the integral package                    ... done
Initializing the effective Hamiltonian             ... done
Starting the Coulomb interaction                   ... done (   0.0 sec)
Reading the grid                                   ... done
Mapping shells                                     ... done
Starting the XC term evaluation                    ... done (   0.0 sec)
  promolecular density results
     # of electrons  =     26.999627701
     EX              =    -54.338520923
     EC              =     -1.158020316
     EX+EC           =    -55.496541239
Transforming the Hamiltonian                       ... done (   0.0 sec)
Diagonalizing the Hamiltonian                      ... done (   0.0 sec)
Back transforming the eigenvectors                 ... done (   0.0 sec)
Now organizing SCF variables                       ... done
                      ------------------
                      INITIAL GUESS DONE (   0.1 sec)
                      ------------------
--------------
SCF ITERATIONS
--------------
ITER       Energy         Delta-E        Max-DP      RMS-DP      [F,P]     Damp
               ***  Starting incremental Fock matrix formation  ***
  0  -1264.1876154388   0.000000000000 0.06532786  0.00149486  0.2872325 0.7000
  1  -1264.2297138029  -0.042098364063 0.03313625  0.00067461  0.0577684 0.7000
                               ***Turning on DIIS***
  2  -1264.2423560392  -0.012642236285 0.06992002  0.00174063  0.0648234 0.0000
  3  -1264.2777173095  -0.035361270303 0.04622015  0.00105879  0.0851229 0.0000
  4  -1264.2846044852  -0.006887175688 0.01021814  0.00024695  0.0197824 0.0000
  5  -1264.2856922925  -0.001087807343 0.00569690  0.00013310  0.0098274 0.0000
  6  -1264.2861354388  -0.000443146299 0.00491778  0.00008472  0.0030039 0.0000
  7  -1264.2863566477  -0.000221208882 0.00358253  0.00006605  0.0019672 0.0000
  8  -1264.2864944873  -0.000137839604 0.00359156  0.00005487  0.0011578 0.0000
  9  -1264.2865824423  -0.000087954982 0.00805410  0.00011533  0.0006867 0.0000
 10  -1264.2866971037  -0.000114661422 0.00064046  0.00001080  0.0013554 0.0000
 11  -1264.2867019685  -0.000004864831 0.00455715  0.00005378  0.0005699 0.0000
 12  -1264.2867164651  -0.000014496602 0.00033712  0.00000575  0.0007375 0.0000
 13  -1264.2867178641  -0.000001398987 0.00039416  0.00000378  0.0001218 0.0000
 14  -1264.2867183742  -0.000000510079 0.00071137  0.00000829  0.0000859 0.0000
 15  -1264.2867188063  -0.000000432114 0.00017944  0.00000191  0.0000130 0.0000
 16  -1264.2867188408  -0.000000034444 0.00002833  0.00000037  0.0000073 0.0000
 17  -1264.2867188625  -0.000000021749 0.00002199  0.00000026  0.0000013 0.0000
                            ***DIIS convergence achieved***

               *****************************************************
               *                     SUCCESS                       *
               *           SCF CONVERGED AFTER  18 CYCLES          *
               *****************************************************

Setting up the final grid:

General Integration Accuracy     IntAcc      ...  4.670
Radial Grid Type                 RadialGrid  ... Gauss-Chebyshev
Angular Grid (max. acc.)         AngularGrid ... Lebedev-302
Angular grid pruning method      GridPruning ... 3 (G Style)
Weight generation scheme         WeightScheme... Becke
Basis function cutoff            BFCut       ...    1.0000e-11
Integration weight cutoff        WCut        ...    1.0000e-14
Grids for H and He will be reduced by one unit

# of grid points (after initial pruning)     ...  13034 (   0.0 sec)
# of grid points (after weights+screening)   ...  13001 (   0.0 sec)
nearest neighbour list constructed           ...    0.0 sec
Grid point re-assignment to atoms done       ...    0.0 sec
Grid point division into batches done        ...    0.1 sec
Reduced shell lists constructed in    0.1 sec

Total number of grid points                  ...    13001
Total number of batches                      ...      204
Average number of points per batch           ...       63
Average number of grid points per atom       ...     6500
Average number of shells per batch           ...    16.20 (47.65%)
Average number of basis functions per batch  ...    35.60 (30.69%)
Average number of large shells per batch     ...     9.80 (60.49%)
Average number of large basis fcns per batch ...    22.60 (63.48%)
Maximum spatial batch extension              ...  31.41, 28.57, 18.88 au
Average spatial batch extension              ...   1.02,  0.93,  0.73 au

Final grid set up in    0.1 sec
Final integration                            ... done (   0.0 sec)
Change in XC energy                          ...     0.001617630
Integrated number of electrons               ...    27.000011142
Previous integrated no of electrons          ...    27.000984048

----------------
TOTAL SCF ENERGY
----------------

Total Energy       :        -1264.28510121 Eh          -34402.94662 eV

Components:
Nuclear Repulsion  :            6.87930371 Eh             187.19537 eV
Electronic Energy  :        -1271.16440491 Eh          -34590.14199 eV
One Electron Energy:        -1761.76416695 Eh          -47940.04021 eV
Two Electron Energy:          490.59976204 Eh           13349.89822 eV

Virial components:
Potential Energy   :        -2526.53504198 Eh          -68750.51370 eV
Kinetic Energy     :         1262.24994077 Eh           34347.56708 eV
Virial Ratio       :            2.00161233


DFT components:
N(Alpha)           :       15.000005443949 electrons
N(Beta)            :       12.000005698052 electrons
N(Total)           :       27.000011142002 electrons
E(X)               :      -54.872127078170 Eh       
E(C)               :       -1.158315462844 Eh       
E(XC)              :      -56.030442541013 Eh       
DFET-embed. en.    :        0.000000000000 Eh       

---------------
SCF CONVERGENCE
---------------

  Last Energy change         ...    2.5981e-08  Tolerance :   1.0000e-08
  Last MAX-Density change    ...    6.5841e-06  Tolerance :   1.0000e-07
  Last RMS-Density change    ...    9.0477e-08  Tolerance :   5.0000e-09
  Last DIIS Error            ...    9.7841e-07  Tolerance :   5.0000e-07

             **** THE GBW FILE WAS UPDATED (31_FeH.gbw) ****
             **** DENSITY FILE WAS UPDATED (31_FeH.scfp) ****
             **** ENERGY FILE WAS UPDATED (31_FeH.en.tmp) ****
----------------------
UHF SPIN CONTAMINATION
----------------------

Warning: in a DFT calculation there is little theoretical justification to 
         calculate <S**2> as in Hartree-Fock theory. We will do it anyways
         but you should keep in mind that the values have only limited relevance

Expectation value of <S**2>     :     3.825587
Ideal value S*(S+1) for S=1.5   :     3.750000
Deviation                       :     0.075587

             **** THE GBW FILE WAS UPDATED (31_FeH.gbw) ****
             **** DENSITY FILE WAS UPDATED (31_FeH.scfp) ****
----------------
ORBITAL ENERGIES
----------------
                 SPIN UP ORBITALS
  NO   OCC          E(Eh)            E(eV) 
   0   1.0000    -255.191070     -6944.1020 
   1   1.0000     -29.583004      -804.9945 
   2   1.0000     -25.463718      -692.9030 
   3   1.0000     -25.463718      -692.9030 
   4   1.0000     -25.433635      -692.0844 
   5   1.0000      -3.307113       -89.9911 
   6   1.0000      -2.122288       -57.7504 
   7   1.0000      -2.122288       -57.7504 
   8   1.0000      -2.062717       -56.1294 
   9   1.0000      -0.224518        -6.1094 
  10   1.0000      -0.223018        -6.0686 
  11   1.0000      -0.223005        -6.0683 
  12   1.0000      -0.187482        -5.1016 
  13   1.0000      -0.167158        -4.5486 
  14   1.0000      -0.167158        -4.5486 
  15   0.0000      -0.109748        -2.9864 
  16   0.0000      -0.037774        -1.0279 
  17   0.0000      -0.037774        -1.0279 
  18   0.0000       0.003018         0.0821 
  19   0.0000       0.015322         0.4169 
  20   0.0000       0.031016         0.8440 
  21   0.0000       0.031016         0.8440 
  22   0.0000       0.045300         1.2327 
  23   0.0000       0.056441         1.5358 
  24   0.0000       0.056441         1.5358 
  25   0.0000       0.056617         1.5406 
  26   0.0000       0.057212         1.5568 
  27   0.0000       0.075110         2.0438 
  28   0.0000       0.100611         2.7378 
  29   0.0000       0.140982         3.8363 
  30   0.0000       0.167277         4.5518 
  31   0.0000       0.167277         4.5518 
  32   0.0000       0.185665         5.0522 
  33   0.0000       0.229042         6.2326 
  34   0.0000       0.229042         6.2326 
  35   0.0000       0.261261         7.1093 
  36   0.0000       0.261883         7.1262 
  37   0.0000       0.293694         7.9918 
  38   0.0000       0.293694         7.9918 
  39   0.0000       0.299476         8.1491 
  40   0.0000       0.386161        10.5080 
  41   0.0000       0.513217        13.9653 
  42   0.0000       0.588886        16.0244 
  43   0.0000       0.681205        18.5365 
  44   0.0000       0.682342        18.5675 
  45   0.0000       0.722529        19.6610 
  46   0.0000       0.722529        19.6610 
  47   0.0000       0.785691        21.3797 
  48   0.0000       0.796275        21.6677 
  49   0.0000       0.796275        21.6677 
  50   0.0000       0.804991        21.9049 
  51   0.0000       0.804991        21.9049 
  52   0.0000       0.919917        25.0322 
  53   0.0000       0.936872        25.4936 
  54   0.0000       0.938159        25.5286 
  55   0.0000       0.941188        25.6110 
  56   0.0000       0.941188        25.6110 
  57   0.0000       1.032913        28.1070 
  58   0.0000       1.044317        28.4173 
  59   0.0000       1.044317        28.4173 
  60   0.0000       1.062017        28.8989 
  61   0.0000       1.063071        28.9276 
  62   0.0000       1.213185        33.0124 
  63   0.0000       1.339117        36.4392 
  64   0.0000       1.339117        36.4392 
  65   0.0000       1.763910        47.9984 
  66   0.0000       2.601506        70.7906 
  67   0.0000       2.601506        70.7906 
  68   0.0000       2.663938        72.4894 
  69   0.0000       2.665315        72.5269 
  70   0.0000       2.680572        72.9421 
  71   0.0000       2.734715        74.4154 
  72   0.0000       2.734715        74.4154 
  73   0.0000       2.790898        75.9442 
  74   0.0000       2.855210        77.6942 
  75   0.0000       2.938458        79.9595 
  76   0.0000       2.938458        79.9595 
  77   0.0000       3.176929        86.4486 
  78   0.0000       3.254206        88.5515 
  79   0.0000       3.254221        88.5518 
  80   0.0000       3.281930        89.3059 
  81   0.0000       3.281930        89.3059 
  82   0.0000       3.308909        90.0400 
  83   0.0000       3.309176        90.0473 
  84   0.0000       3.319924        90.3397 
  85   0.0000       3.319924        90.3397 
  86   0.0000       3.361931        91.4828 
  87   0.0000       3.758359       102.2701 
  88   0.0000       3.774610       102.7124 
  89   0.0000       3.912534       106.4655 
  90   0.0000       3.912534       106.4655 
  91   0.0000       4.083691       111.1229 
  92   0.0000       4.083691       111.1229 
  93   0.0000       4.232715       115.1780 
  94   0.0000       4.401000       119.7573 
  95   0.0000       4.413245       120.0905 
  96   0.0000       4.413367       120.0938 
  97   0.0000       4.552652       123.8839 
  98   0.0000       4.552652       123.8839 
  99   0.0000       5.477314       149.0453 
 100   0.0000       8.796539       239.3660 
 101   0.0000       8.796539       239.3660 
 102   0.0000       8.874741       241.4940 
 103   0.0000       8.874995       241.5009 
 104   0.0000       8.910999       242.4806 
 105   0.0000       8.910999       242.4806 
 106   0.0000       8.941159       243.3013 
 107   0.0000       9.589395       260.9407 
 108   0.0000       9.589415       260.9412 
 109   0.0000       9.642292       262.3801 
 110   0.0000       9.642292       262.3801 
 111   0.0000       9.659966       262.8610 
 112   0.0000       9.660337       262.8711 
 113   0.0000       9.707057       264.1425 
 114   0.0000       9.707057       264.1425 
 115   0.0000       9.850098       268.0348 

                 SPIN DOWN ORBITALS
  NO   OCC          E(Eh)            E(eV) 
   0   1.0000    -255.190230     -6944.0792 
   1   1.0000     -29.538510      -803.7837 
   2   1.0000     -25.422359      -691.7775 
   3   1.0000     -25.422359      -691.7775 
   4   1.0000     -25.408615      -691.4036 
   5   1.0000      -3.193197       -86.8913 
   6   1.0000      -1.991469       -54.1906 
   7   1.0000      -1.991469       -54.1906 
   8   1.0000      -1.981598       -53.9220 
   9   1.0000      -0.230710        -6.2779 
  10   1.0000      -0.120712        -3.2848 
  11   1.0000      -0.120712        -3.2848 
  12   0.0000      -0.103791        -2.8243 
  13   0.0000      -0.086738        -2.3603 
  14   0.0000      -0.086444        -2.3523 
  15   0.0000      -0.043855        -1.1934 
  16   0.0000      -0.017752        -0.4831 
  17   0.0000      -0.017752        -0.4831 
  18   0.0000       0.009253         0.2518 
  19   0.0000       0.019353         0.5266 
  20   0.0000       0.039656         1.0791 
  21   0.0000       0.039656         1.0791 
  22   0.0000       0.051130         1.3913 
  23   0.0000       0.059082         1.6077 
  24   0.0000       0.059082         1.6077 
  25   0.0000       0.067856         1.8465 
  26   0.0000       0.068532         1.8649 
  27   0.0000       0.078225         2.1286 
  28   0.0000       0.113429         3.0866 
  29   0.0000       0.142633         3.8812 
  30   0.0000       0.190980         5.1968 
  31   0.0000       0.191517         5.2115 
  32   0.0000       0.191517         5.2115 
  33   0.0000       0.226496         6.1633 
  34   0.0000       0.226496         6.1633 
  35   0.0000       0.291347         7.9280 
  36   0.0000       0.291797         7.9402 
  37   0.0000       0.301634         8.2079 
  38   0.0000       0.301634         8.2079 
  39   0.0000       0.310400         8.4464 
  40   0.0000       0.395199        10.7539 
  41   0.0000       0.530553        14.4371 
  42   0.0000       0.586774        15.9669 
  43   0.0000       0.677325        18.4309 
  44   0.0000       0.678269        18.4566 
  45   0.0000       0.760744        20.7009 
  46   0.0000       0.760744        20.7009 
  47   0.0000       0.795357        21.6428 
  48   0.0000       0.809913        22.0388 
  49   0.0000       0.809913        22.0388 
  50   0.0000       0.858375        23.3576 
  51   0.0000       0.858375        23.3576 
  52   0.0000       0.923446        25.1282 
  53   0.0000       0.924292        25.1513 
  54   0.0000       0.924292        25.1513 
  55   0.0000       0.950381        25.8612 
  56   0.0000       0.951200        25.8835 
  57   0.0000       1.064275        28.9604 
  58   0.0000       1.064275        28.9604 
  59   0.0000       1.079664        29.3792 
  60   0.0000       1.141233        31.0545 
  61   0.0000       1.142534        31.0899 
  62   0.0000       1.229172        33.4475 
  63   0.0000       1.353260        36.8241 
  64   0.0000       1.353260        36.8241 
  65   0.0000       1.782794        48.5123 
  66   0.0000       2.680473        72.9394 
  67   0.0000       2.703220        73.5583 
  68   0.0000       2.704620        73.5964 
  69   0.0000       2.713200        73.8299 
  70   0.0000       2.713200        73.8299 
  71   0.0000       2.802450        76.2585 
  72   0.0000       2.802450        76.2585 
  73   0.0000       2.854446        77.6734 
  74   0.0000       2.930260        79.7364 
  75   0.0000       3.025900        82.3389 
  76   0.0000       3.025900        82.3389 
  77   0.0000       3.237780        88.1045 
  78   0.0000       3.324087        90.4530 
  79   0.0000       3.324087        90.4530 
  80   0.0000       3.346498        91.0628 
  81   0.0000       3.346960        91.0754 
  82   0.0000       3.349472        91.1438 
  83   0.0000       3.349958        91.1570 
  84   0.0000       3.363063        91.5136 
  85   0.0000       3.363063        91.5136 
  86   0.0000       3.394767        92.3763 
  87   0.0000       3.741555       101.8129 
  88   0.0000       3.759762       102.3083 
  89   0.0000       3.896663       106.0336 
  90   0.0000       3.896663       106.0336 
  91   0.0000       4.072991       110.8317 
  92   0.0000       4.072991       110.8317 
  93   0.0000       4.262352       115.9845 
  94   0.0000       4.423436       120.3678 
  95   0.0000       4.530894       123.2919 
  96   0.0000       4.531163       123.2992 
  97   0.0000       4.606599       125.3519 
  98   0.0000       4.606599       125.3519 
  99   0.0000       5.539598       150.7401 
 100   0.0000       8.969895       244.0833 
 101   0.0000       8.970322       244.0949 
 102   0.0000       8.979872       244.3547 
 103   0.0000       8.979872       244.3547 
 104   0.0000       9.048331       246.2176 
 105   0.0000       9.048331       246.2176 
 106   0.0000       9.098195       247.5745 
 107   0.0000       9.726331       264.6669 
 108   0.0000       9.726369       264.6680 
 109   0.0000       9.727904       264.7097 
 110   0.0000       9.727904       264.7097 
 111   0.0000       9.749443       265.2958 
 112   0.0000       9.750069       265.3129 
 113   0.0000       9.808271       266.8966 
 114   0.0000       9.808271       266.8966 
 115   0.0000       9.961531       271.0670 

                    ********************************
                    * MULLIKEN POPULATION ANALYSIS *
                    ********************************

--------------------------------------------
MULLIKEN ATOMIC CHARGES AND SPIN POPULATIONS
--------------------------------------------
   0 Fe:    0.261521    3.249203
   1 H :   -0.261521   -0.249203
Sum of atomic charges         :   -0.0000000
Sum of atomic spin populations:    3.0000000

-----------------------------------------------------
MULLIKEN REDUCED ORBITAL CHARGES AND SPIN POPULATIONS
-----------------------------------------------------
CHARGE
  0 Fes       :     6.741152  s :     6.741152
      pz      :     4.047834  p :    12.054588
      px      :     4.003377
      py      :     4.003377
      dz2     :     0.955330  d :     6.939883
      dxz     :     1.992370
      dyz     :     1.992370
      dx2y2   :     0.999911
      dxy     :     0.999902
      f0      :     0.002295  f :     0.002773
      f+1     :     0.000171
      f-1     :     0.000171
      f+2     :     0.000068
      f-2     :     0.000068
      f+3     :     0.000000
      f-3     :     0.000000
      g0      :    -0.000023  g :     0.000084
      g+1     :     0.000021
      g-1     :     0.000021
      g+2     :     0.000031
      g-2     :     0.000032
      g+3     :     0.000000
      g-3     :     0.000000
      g+4     :     0.000000
      g-4     :     0.000000
  1 H s       :     1.247117  s :     1.247117
      pz      :     0.007549  p :     0.013822
      px      :     0.003136
      py      :     0.003136
      dz2     :    -0.001255  d :     0.000582
      dxz     :     0.000924
      dyz     :     0.000924
      dx2y2   :    -0.000010
      dxy     :    -0.000002

SPIN
  0 Fes       :     0.399829  s :     0.399829
      pz      :    -0.015770  p :    -0.015918
      px      :    -0.000074
      py      :    -0.000074
      dz2     :     0.859959  d :     2.865258
      dxz     :     0.002743
      dyz     :     0.002743
      dx2y2   :     0.999911
      dxy     :     0.999902
      f0      :    -0.000333  f :    -0.000131
      f+1     :     0.000033
      f-1     :     0.000033
      f+2     :     0.000068
      f-2     :     0.000068
      f+3     :    -0.000000
      f-3     :    -0.000000
      g0      :     0.000066  g :     0.000164
      g+1     :     0.000017
      g-1     :     0.000017
      g+2     :     0.000031
      g-2     :     0.000032
      g+3     :     0.000000
      g-3     :     0.000000
      g+4     :     0.000000
      g-4     :    -0.000000
  1 H s       :    -0.246490  s :    -0.246490
      pz      :     0.002937  p :    -0.001144
      px      :    -0.002041
      py      :    -0.002041
      dz2     :    -0.000198  d :    -0.001568
      dxz     :    -0.000679
      dyz     :    -0.000679
      dx2y2   :    -0.000010
      dxy     :    -0.000002


                     *******************************
                     * LOEWDIN POPULATION ANALYSIS *
                     *******************************

-------------------------------------------
LOEWDIN ATOMIC CHARGES AND SPIN POPULATIONS
-------------------------------------------
   0 Fe:    0.313318    3.114344
   1 H :   -0.313318   -0.114344

----------------------------------------------------
LOEWDIN REDUCED ORBITAL CHARGES AND SPIN POPULATIONS
----------------------------------------------------
CHARGE
  0 Fes       :     6.700357  s :     6.700357
      pz      :     4.091105  p :    12.086245
      px      :     3.997570
      py      :     3.997570
      dz2     :     0.993768  d :     6.883772
      dxz     :     1.946069
      dyz     :     1.946069
      dx2y2   :     0.998937
      dxy     :     0.998928
      f0      :     0.012860  f :     0.015858
      f+1     :     0.001403
      f-1     :     0.001403
      f+2     :     0.000096
      f-2     :     0.000096
      f+3     :     0.000000
      f-3     :     0.000000
      g0      :     0.000223  g :     0.000451
      g+1     :     0.000079
      g-1     :     0.000079
      g+2     :     0.000035
      g-2     :     0.000035
      g+3     :     0.000000
      g-3     :     0.000000
      g+4     :     0.000000
      g-4     :     0.000000
  1 H s       :     1.047904  s :     1.047904
      pz      :     0.097256  p :     0.141102
      px      :     0.021923
      py      :     0.021923
      dz2     :     0.056528  d :     0.124312
      dxz     :     0.032955
      dyz     :     0.032955
      dx2y2   :     0.000932
      dxy     :     0.000941

SPIN
  0 Fes       :     0.340881  s :     0.340881
      pz      :    -0.055539  p :    -0.055869
      px      :    -0.000165
      py      :    -0.000165
      dz2     :     0.825188  d :     2.832658
      dxz     :     0.004803
      dyz     :     0.004803
      dx2y2   :     0.998937
      dxy     :     0.998928
      f0      :    -0.003701  f :    -0.003499
      f+1     :     0.000005
      f-1     :     0.000005
      f+2     :     0.000096
      f-2     :     0.000096
      f+3     :    -0.000000
      f-3     :    -0.000000
      g0      :     0.000018  g :     0.000174
      g+1     :     0.000043
      g-1     :     0.000043
      g+2     :     0.000035
      g-2     :     0.000035
      g+3     :     0.000000
      g-3     :     0.000000
      g+4     :     0.000000
      g-4     :    -0.000000
  1 H s       :    -0.132200  s :    -0.132200
      pz      :     0.023347  p :     0.016426
      px      :    -0.003461
      py      :    -0.003461
      dz2     :     0.002006  d :     0.001430
      dxz     :    -0.001225
      dyz     :    -0.001225
      dx2y2   :     0.000932
      dxy     :     0.000941


                      *****************************
                      * MAYER POPULATION ANALYSIS *
                      *****************************

  NA   - Mulliken gross atomic population
  ZA   - Total nuclear charge
  QA   - Mulliken gross atomic charge
  VA   - Mayer's total valence
  BVA  - Mayer's bonded valence
  FA   - Mayer's free valence

  ATOM       NA         ZA         QA         VA         BVA        FA
  0 Fe    25.7385    26.0000     0.2615     3.9640     0.9013     3.0627
  1 H      1.2615     1.0000    -0.2615     0.9639     0.9013     0.0626

  Mayer bond orders larger than 0.100000
B(  0-Fe,  1-H ) :   0.9013 

-------
TIMINGS
-------

Total SCF time: 0 days 0 hours 0 min 2 sec 

Total time                  ....       2.948 sec
Sum of individual times     ....       2.825 sec  ( 95.8%)

Fock matrix formation       ....       2.498 sec  ( 84.7%)
  Split-RI-J                ....       2.002 sec  ( 80.1% of F)
  XC integration            ....       0.415 sec  ( 16.6% of F)
    Basis function eval.    ....       0.027 sec  (  6.5% of XC)
    Density eval.           ....       0.026 sec  (  6.3% of XC)
    XC-Functional eval.     ....       0.008 sec  (  2.0% of XC)
    XC-Potential eval.      ....       0.074 sec  ( 17.9% of XC)
Diagonalization             ....       0.062 sec  (  2.1%)
Density matrix formation    ....       0.010 sec  (  0.3%)
Population analysis         ....       0.006 sec  (  0.2%)
Initial guess               ....       0.125 sec  (  4.2%)
Orbital Transformation      ....       0.000 sec  (  0.0%)
Orbital Orthonormalization  ....       0.000 sec  (  0.0%)
DIIS solution               ....       0.025 sec  (  0.9%)
Grid generation             ....       0.100 sec  (  3.4%)


-------------------------------------------------------------------------------
                          DFT DISPERSION CORRECTION                            
                                                                               
                              DFTD3 V3.1  Rev 1                                
                          USING Becke-Johnson damping                          
-------------------------------------------------------------------------------
The TPSS functional is recognized
Active option DFTDOPT                   ...         4   

molecular C6(AA) [au] = 606.249407 


            DFT-D V3
 parameters
 s6 scaling factor         :     1.0000 
 a1 scaling factor         :     0.4535 
 s8 scaling factor         :     1.9435 
 a2 scaling factor         :     4.4752 
 ad hoc parameters k1-k3   :    16.0000     1.3333    -4.0000 

 Edisp/kcal,au: -0.596819951040  -0.000951093031 
 E6   /kcal   :  -0.257744055 
 E8   /kcal   :  -0.339075896 
 % E8         :  56.813766881 

-------------------------   ----------------
Dispersion correction           -0.000951093
-------------------------   ----------------


-------------------------   --------------------
FINAL SINGLE POINT ENERGY     -1264.286052299646
-------------------------   --------------------



           ************************************************************
           *        Program running with 24 parallel MPI-processes    *
           *              working on a common directory               *
           ************************************************************
------------------------------------------------------------------------------
                         ORCA SCF GRADIENT CALCULATION
------------------------------------------------------------------------------

Gradient of the Kohn-Sham DFT energy:
Kohn-Sham wavefunction type      ... UKS
Hartree-Fock exchange scaling    ...    0.000
Number of operators              ...    2
Number of atoms                  ...    2
Basis set dimensions             ...  116
Integral neglect threshold       ... 2.5e-11
Integral primitive cutoff        ... 2.5e-12

Nuclear repulsion gradient       ... done
One Electron Gradient            ... done
Pre-screening matrix             ... done
RI-J gradient                    ... done
Exchange-correlation gradient    ... done
Dispersion correction            ... done

------------------
CARTESIAN GRADIENT
------------------

   1   Fe  :   -0.000000004   -0.000000001   -0.042580130
   2   H   :    0.000000000   -0.000000000    0.041979126

Difference to translation invariance:
           :   -0.0000000041   -0.0000000016   -0.0006010045

Norm of the cartesian gradient     ...    0.0597939338
RMS gradient                       ...    0.0244107712
MAX gradient                       ...    0.0425801304

-------
TIMINGS
-------

Total SCF gradient time            ...        4.118 sec

One electron gradient       ....       0.063 sec  (  1.5%)
Prescreening matrices       ....       3.332 sec  ( 80.9%)
RI-J Coulomb gradient       ....       0.155 sec  (  3.8%)
XC gradient                 ....       0.031 sec  (  0.7%)
------------------------------------------------------------------------------
                         ORCA GEOMETRY RELAXATION STEP
------------------------------------------------------------------------------

Reading the OPT-File                    .... done
Getting information on internals        .... done
Copying old internal coords+grads       .... done
Making the new internal coordinates     .... (new redundants).... done
Validating the new internal coordinates .... (new redundants).... done
Calculating the B-matrix                .... done
Calculating the G,G- and P matrices     .... done
Transforming gradient to internals      .... done
Projecting the internal gradient        .... done
Number of atoms                         ....   2
Number of internal coordinates          ....   1
Current Energy                          .... -1264.286052300 Eh
Current gradient norm                   ....     0.059793934 Eh/bohr
Maximum allowed component of the step   ....  0.300
Current trust radius                    ....  0.300
Evaluating the initial hessian          ....  (Almloef) done
Projecting the Hessian                  .... done
Forming the augmented Hessian           .... done
Diagonalizing the augmented Hessian     .... done
Last element of RFO vector              ....  0.958076537
Lowest eigenvalues of augmented Hessian:
 -0.012643705
Length of the computed step             ....  0.299049582
The final length of the internal step   ....  0.299049582
Converting the step to cartesian space:
 Initial RMS(Int)=    0.2990495818
Transforming coordinates:
 Iter   0:  RMS(Cart)=    0.0863281783 RMS(Int)=    0.2990495818
 Iter   1:  RMS(Cart)=    0.0000000000 RMS(Int)=    0.0000000000
done
Storing new coordinates                 .... done

                                .--------------------.
          ----------------------|Geometry convergence|-------------------------
          Item                value                   Tolerance       Converged
          ---------------------------------------------------------------------
          RMS gradient        0.0422796282            0.0001000000      NO
          MAX gradient        0.0422796282            0.0003000000      NO
          RMS step            0.2990495818            0.0020000000      NO
          MAX step            0.2990495818            0.0040000000      NO
          ........................................................
          Max(Bonds)      0.1583      Max(Angles)    0.00
          Max(Dihed)        0.00      Max(Improp)    0.00
          ---------------------------------------------------------------------

The optimization has not yet converged - more geometry cycles are needed


    ---------------------------------------------------------------------------
                         Redundant Internal Coordinates
                            (Angstroem and degrees)

        Definition                    Value    dE/dq     Step     New-Value
    ----------------------------------------------------------------------------
     1. B(H   1,Fe  0)                2.0000  0.042280 -0.1583    1.8417   
    ----------------------------------------------------------------------------

         *************************************************************
         *                GEOMETRY OPTIMIZATION CYCLE   2            *
         *************************************************************
---------------------------------
CARTESIAN COORDINATES (ANGSTROEM)
---------------------------------
  Fe     0.000000    0.000000    0.079125
  H      0.000000    0.000000    1.920875

----------------------------
CARTESIAN COORDINATES (A.U.)
----------------------------
  NO LB      ZA    FRAG     MASS         X           Y           Z
   0 Fe   26.0000    0    55.850    0.000000    0.000000    0.149525
   1 H     1.0000    0     1.008    0.000000    0.000000    3.629927

--------------------------------
INTERNAL COORDINATES (ANGSTROEM)
--------------------------------
 Fe     0   0   0     0.000000000000     0.00000000     0.00000000
 H      1   0   0     1.841749777136     0.00000000     0.00000000

---------------------------
INTERNAL COORDINATES (A.U.)
---------------------------
 Fe     0   0   0     0.000000000000     0.00000000     0.00000000
 H      1   0   0     3.480402685997     0.00000000     0.00000000



           ************************************************************
           *        Program running with 24 parallel MPI-processes    *
           *              working on a common directory               *
           ************************************************************
 One Electron integrals                  ... done
 Pre-screening matrix                    ... done


           ************************************************************
           *        Program running with 24 parallel MPI-processes    *
           *              working on a common directory               *
           ************************************************************

Diagonalization of the overlap matrix:
Smallest eigenvalue                        ... 1.159e-04
Time for diagonalization                   ...    0.004 sec
Threshold for overlap eigenvalues          ... 1.000e-08
Number of eigenvalues below threshold      ... 0
Time for construction of square roots      ...    0.002 sec
Total time needed                          ...    0.006 sec

-------------------
DFT GRID GENERATION
-------------------

General Integration Accuracy     IntAcc      ...  4.340
Radial Grid Type                 RadialGrid  ... Gauss-Chebyshev
Angular Grid (max. acc.)         AngularGrid ... Lebedev-110
Angular grid pruning method      GridPruning ... 3 (G Style)
Weight generation scheme         WeightScheme... Becke
Basis function cutoff            BFCut       ...    1.0000e-11
Integration weight cutoff        WCut        ...    1.0000e-14
Grids for H and He will be reduced by one unit

# of grid points (after initial pruning)     ...   3706 (   0.0 sec)
# of grid points (after weights+screening)   ...   3683 (   0.0 sec)
nearest neighbour list constructed           ...    0.0 sec
Grid point re-assignment to atoms done       ...    0.0 sec
Grid point division into batches done        ...    0.0 sec
Reduced shell lists constructed in    0.0 sec

Total number of grid points                  ...     3683
Total number of batches                      ...       59
Average number of points per batch           ...       62
Average number of grid points per atom       ...     1842
Average number of shells per batch           ...    20.25 (59.56%)
Average number of basis functions per batch  ...    56.25 (48.49%)
Average number of large shells per batch     ...    15.75 (77.78%)
Average number of large basis fcns per batch ...    45.75 (81.33%)
Maximum spatial batch extension              ...  37.20, 28.73, 20.18 au
Average spatial batch extension              ...   1.30,  1.31,  0.88 au

Time for grid setup =    0.016 sec

--------------
SCF ITERATIONS
--------------
ITER       Energy         Delta-E        Max-DP      RMS-DP      [F,P]     Damp
               ***  Starting incremental Fock matrix formation  ***
  0  -1264.2981496391   0.000000000000 0.00582769  0.00012300  0.0157833 0.7000
  1  -1264.2983116711  -0.000162031972 0.00492687  0.00010657  0.0108717 0.7000
                               ***Turning on DIIS***
  2  -1264.2984350066  -0.000123335517 0.01202966  0.00027112  0.0066885 0.0000
  3  -1264.2987161431  -0.000281136503 0.00233191  0.00004615  0.0030237 0.0000
  4  -1264.2987490835  -0.000032940384 0.00664162  0.00006475  0.0008277 0.0000
  5  -1264.2987596595  -0.000010575956 0.00024049  0.00000622  0.0029736 0.0000
  6  -1264.2987636553  -0.000003995877 0.00036901  0.00000722  0.0017970 0.0000
  7  -1264.2987662408  -0.000002585423 0.00077833  0.00001380  0.0007272 0.0000
  8  -1264.2987677871  -0.000001546314 0.00033285  0.00000438  0.0001087 0.0000
  9  -1264.2987685922  -0.000000805122 0.00020743  0.00000219  0.0001542 0.0000
 10  -1264.2987691115  -0.000000519280 0.00009927  0.00000142  0.0000830 0.0000
 11  -1264.2987693352  -0.000000223739 0.00008881  0.00000093  0.0000192 0.0000
 12  -1264.2987694244  -0.000000089207 0.00003144  0.00000039  0.0000058 0.0000
 13  -1264.2987694493  -0.000000024864 0.00001716  0.00000024  0.0000024 0.0000
 14  -1264.2987694603  -0.000000010989 0.00003967  0.00000042  0.0000019 0.0000
 15  -1264.2987694910  -0.000000030772 0.00001156  0.00000011  0.0000032 0.0000
 16  -1264.2987695084  -0.000000017347 0.00002028  0.00000022  0.0000027 0.0000
 17  -1264.2987694721   0.000000036265 0.00000370  0.00000004  0.0000018 0.0000
 18  -1264.2987694677   0.000000004417 0.00001294  0.00000012  0.0000016 0.0000
 19  -1264.2987694748  -0.000000007051 0.00001777  0.00000016  0.0000011 0.0000
               *** Restarting incremental Fock matrix formation ***
                                   *** Resetting DIIS ***
 20  -1264.2987679923   0.000001482437 0.00009515  0.00000124  0.0000297 0.0000
 21  -1264.2987678132   0.000000179086 0.00001247  0.00000013  0.0000017 0.0000
 22  -1264.2987678097   0.000000003573 0.00000650  0.00000007  0.0000063 0.0000
 23  -1264.2987677870   0.000000022689 0.00001476  0.00000014  0.0000013 0.0000
 24  -1264.2987677669   0.000000020053 0.00001104  0.00000010  0.0000020 0.0000
 25  -1264.2987677814  -0.000000014447 0.00000577  0.00000005  0.0000015 0.0000
                 **** Energy Check signals convergence ****

               *****************************************************
               *                     SUCCESS                       *
               *           SCF CONVERGED AFTER  26 CYCLES          *
               *****************************************************

Setting up the final grid:

General Integration Accuracy     IntAcc      ...  4.670
Radial Grid Type                 RadialGrid  ... Gauss-Chebyshev
Angular Grid (max. acc.)         AngularGrid ... Lebedev-302
Angular grid pruning method      GridPruning ... 3 (G Style)
Weight generation scheme         WeightScheme... Becke
Basis function cutoff            BFCut       ...    1.0000e-11
Integration weight cutoff        WCut        ...    1.0000e-14
Grids for H and He will be reduced by one unit

# of grid points (after initial pruning)     ...  13034 (   0.0 sec)
# of grid points (after weights+screening)   ...  13000 (   0.0 sec)
nearest neighbour list constructed           ...    0.0 sec
Grid point re-assignment to atoms done       ...    0.0 sec
Grid point division into batches done        ...    0.1 sec
Reduced shell lists constructed in    0.1 sec

Total number of grid points                  ...    13000
Total number of batches                      ...      204
Average number of points per batch           ...       63
Average number of grid points per atom       ...     6500
Average number of shells per batch           ...    16.20 (47.65%)
Average number of basis functions per batch  ...    35.60 (30.69%)
Average number of large shells per batch     ...     9.80 (60.49%)
Average number of large basis fcns per batch ...    22.60 (63.48%)
Maximum spatial batch extension              ...  31.41, 28.57, 18.88 au
Average spatial batch extension              ...   1.02,  0.93,  0.73 au

Final grid set up in    0.1 sec
Final integration                            ... done (   0.1 sec)
Change in XC energy                          ...     0.001576176
Integrated number of electrons               ...    27.000008629
Previous integrated no of electrons          ...    27.001367416
Total Energy       :        -1264.29719161 Eh          -34403.27561 eV
  Last Energy change         ...   -4.5429e-09  Tolerance :   1.0000e-08
  Last MAX-Density change    ...    3.2182e-06  Tolerance :   1.0000e-07
             **** THE GBW FILE WAS UPDATED (31_FeH.gbw) ****
             **** DENSITY FILE WAS UPDATED (31_FeH.scfp) ****
             **** ENERGY FILE WAS UPDATED (31_FeH.en.tmp) ****
----------------------
UHF SPIN CONTAMINATION
----------------------

Warning: in a DFT calculation there is little theoretical justification to 
         calculate <S**2> as in Hartree-Fock theory. We will do it anyways
         but you should keep in mind that the values have only limited relevance

Expectation value of <S**2>     :     3.803289
Ideal value S*(S+1) for S=1.5   :     3.750000
Deviation                       :     0.053289

             **** THE GBW FILE WAS UPDATED (31_FeH.gbw) ****
             **** DENSITY FILE WAS UPDATED (31_FeH.scfp) ****
Total SCF time: 0 days 0 hours 0 min 4 sec 


-------------------------------------------------------------------------------
                          DFT DISPERSION CORRECTION                            
                                                                               
                              DFTD3 V3.1  Rev 1                                
                          USING Becke-Johnson damping                          
-------------------------------------------------------------------------------
-------------------------   ----------------
Dispersion correction           -0.000813948
-------------------------   ----------------


-------------------------   --------------------
FINAL SINGLE POINT ENERGY     -1264.298005558277
-------------------------   --------------------



           ************************************************************
           *        Program running with 24 parallel MPI-processes    *
           *              working on a common directory               *
           ************************************************************
------------------------------------------------------------------------------
                         ORCA SCF GRADIENT CALCULATION
------------------------------------------------------------------------------

Gradient of the Kohn-Sham DFT energy:
Kohn-Sham wavefunction type      ... UKS
Hartree-Fock exchange scaling    ...    0.000
Number of operators              ...    2
Number of atoms                  ...    2
Basis set dimensions             ...  116
Integral neglect threshold       ... 2.5e-11
Integral primitive cutoff        ... 2.5e-12

Nuclear repulsion gradient       ... done
One Electron Gradient            ... done
Pre-screening matrix             ... done
RI-J gradient                    ... done
Exchange-correlation gradient    ... done
Dispersion correction            ... done

------------------
CARTESIAN GRADIENT
------------------

   1   Fe  :   -0.000000012    0.000000015   -0.037339084
   2   H   :    0.000000013   -0.000000018    0.036763554

Difference to translation invariance:
           :    0.0000000017   -0.0000000024   -0.0005755301

Norm of the cartesian gradient     ...    0.0524000576
RMS gradient                       ...    0.0213922339
MAX gradient                       ...    0.0373390836

-------
TIMINGS
-------

Total SCF gradient time            ...        4.135 sec

One electron gradient       ....       0.059 sec  (  1.4%)
Prescreening matrices       ....       3.343 sec  ( 80.9%)
RI-J Coulomb gradient       ....       0.156 sec  (  3.8%)
XC gradient                 ....       0.037 sec  (  0.9%)
------------------------------------------------------------------------------
                         ORCA GEOMETRY RELAXATION STEP
------------------------------------------------------------------------------

Reading the OPT-File                    .... done
Getting information on internals        .... done
Copying old internal coords+grads       .... done
Making the new internal coordinates     .... (new redundants).... done
Validating the new internal coordinates .... (new redundants).... done
Calculating the B-matrix                .... done
Calculating the G,G- and P matrices     .... done
Transforming gradient to internals      .... done
Projecting the internal gradient        .... done
Number of atoms                         ....   2
Number of internal coordinates          ....   1
Current Energy                          .... -1264.298005558 Eh
Current gradient norm                   ....     0.052400058 Eh/bohr
Maximum allowed component of the step   ....  0.300
Current trust radius                    ....  0.300
Updating the Hessian (BFGS)             .... done
Forming the augmented Hessian           .... done
Diagonalizing the augmented Hessian     .... done
Last element of RFO vector              ....  0.784100232
Lowest eigenvalues of augmented Hessian:
 -0.029327011
Length of the computed step             ....  0.791524076
Warning: the length of the step is outside the trust region - taking restricted step instead
The input lambda is                     ....    -0.029327
   iter:   1  x=   -0.049370  g=   26.768172 f(x)=     0.536510
   iter:   2  x=   -0.073002  g=    9.189158 f(x)=     0.217161
   iter:   3  x=   -0.093960  g=    3.705986 f(x)=     0.077669
   iter:   4  x=   -0.104312  g=    1.983721 f(x)=     0.020536
   iter:   5  x=   -0.105986  g=    1.519669 f(x)=     0.002544
   iter:   6  x=   -0.106021  g=    1.458689 f(x)=     0.000052
   iter:   7  x=   -0.106021  g=    1.457439 f(x)=     0.000000
   iter:   8  x=   -0.106021  g=    1.457438 f(x)=     0.000000
The output lambda is                    ....    -0.106021 (8 iterations)
The final length of the internal step   ....  0.300000000
Converting the step to cartesian space:
 Initial RMS(Int)=    0.3000000000
Transforming coordinates:
 Iter   0:  RMS(Cart)=    0.0866025404 RMS(Int)=    0.3000000000
 Iter   1:  RMS(Cart)=    0.0000000000 RMS(Int)=    0.0000000000
done
Storing new coordinates                 .... done

                                .--------------------.
          ----------------------|Geometry convergence|-------------------------
          Item                value                   Tolerance       Converged
          ---------------------------------------------------------------------
          Energy change      -0.0119532586            0.0000050000      NO
          RMS gradient        0.0370513186            0.0001000000      NO
          MAX gradient        0.0370513186            0.0003000000      NO
          RMS step            0.3000000000            0.0020000000      NO
          MAX step            0.3000000000            0.0040000000      NO
          ........................................................
          Max(Bonds)      0.1588      Max(Angles)    0.00
          Max(Dihed)        0.00      Max(Improp)    0.00
          ---------------------------------------------------------------------

The optimization has not yet converged - more geometry cycles are needed


    ---------------------------------------------------------------------------
                         Redundant Internal Coordinates
                            (Angstroem and degrees)

        Definition                    Value    dE/dq     Step     New-Value
    ----------------------------------------------------------------------------
     1. B(H   1,Fe  0)                1.8417  0.037051 -0.1588    1.6830   
    ----------------------------------------------------------------------------

         *************************************************************
         *                GEOMETRY OPTIMIZATION CYCLE   3            *
         *************************************************************
---------------------------------
CARTESIAN COORDINATES (ANGSTROEM)
---------------------------------
  Fe     0.000000    0.000000    0.158502
  H      0.000000    0.000000    1.841498

----------------------------
CARTESIAN COORDINATES (A.U.)
----------------------------
  NO LB      ZA    FRAG     MASS         X           Y           Z
   0 Fe   26.0000    0    55.850    0.000000    0.000000    0.299525
   1 H     1.0000    0     1.008    0.000000    0.000000    3.479927

--------------------------------
INTERNAL COORDINATES (ANGSTROEM)
--------------------------------
 Fe     0   0   0     0.000000000000     0.00000000     0.00000000
 H      1   0   0     1.682996614646     0.00000000     0.00000000

---------------------------
INTERNAL COORDINATES (A.U.)
---------------------------
 Fe     0   0   0     0.000000000000     0.00000000     0.00000000
 H      1   0   0     3.180402685997     0.00000000     0.00000000



           ************************************************************
           *        Program running with 24 parallel MPI-processes    *
           *              working on a common directory               *
           ************************************************************
 One Electron integrals                  ... done
 Pre-screening matrix                    ... done


           ************************************************************
           *        Program running with 24 parallel MPI-processes    *
           *              working on a common directory               *
           ************************************************************

Diagonalization of the overlap matrix:
Smallest eigenvalue                        ... 8.350e-05
Time for diagonalization                   ...    0.004 sec
Threshold for overlap eigenvalues          ... 1.000e-08
Number of eigenvalues below threshold      ... 0
Time for construction of square roots      ...    0.002 sec
Total time needed                          ...    0.006 sec

-------------------
DFT GRID GENERATION
-------------------

General Integration Accuracy     IntAcc      ...  4.340
Radial Grid Type                 RadialGrid  ... Gauss-Chebyshev
Angular Grid (max. acc.)         AngularGrid ... Lebedev-110
Angular grid pruning method      GridPruning ... 3 (G Style)
Weight generation scheme         WeightScheme... Becke
Basis function cutoff            BFCut       ...    1.0000e-11
Integration weight cutoff        WCut        ...    1.0000e-14
Grids for H and He will be reduced by one unit

# of grid points (after initial pruning)     ...   3706 (   0.0 sec)
# of grid points (after weights+screening)   ...   3682 (   0.0 sec)
nearest neighbour list constructed           ...    0.0 sec
Grid point re-assignment to atoms done       ...    0.0 sec
Grid point division into batches done        ...    0.0 sec
Reduced shell lists constructed in    0.0 sec

Total number of grid points                  ...     3682
Total number of batches                      ...       58
Average number of points per batch           ...       63
Average number of grid points per atom       ...     1841
Average number of shells per batch           ...    20.75 (61.03%)
Average number of basis functions per batch  ...    60.25 (51.94%)
Average number of large shells per batch     ...    16.25 (78.31%)
Average number of large basis fcns per batch ...    47.25 (78.42%)
Maximum spatial batch extension              ...  37.20, 28.73, 20.18 au
Average spatial batch extension              ...   1.32,  1.34,  0.90 au

Time for grid setup =    0.015 sec

--------------
SCF ITERATIONS
--------------
ITER       Energy         Delta-E        Max-DP      RMS-DP      [F,P]     Damp
               ***  Starting incremental Fock matrix formation  ***
  0  -1264.3074760282   0.000000000000 0.01053215  0.00019748  0.0196196 0.7000
  1  -1264.3077138057  -0.000237777454 0.00909393  0.00017181  0.0137390 0.7000
                               ***Turning on DIIS***
  2  -1264.3078979429  -0.000184137217 0.02234673  0.00043523  0.0096182 0.0000
  3  -1264.3083310941  -0.000433151217 0.00360079  0.00005300  0.0026332 0.0000
  4  -1264.3083646090  -0.000033514875 0.00203846  0.00002807  0.0010622 0.0000
  5  -1264.3083744742  -0.000009865183 0.00573608  0.00005403  0.0007489 0.0000
  6  -1264.3083792970  -0.000004822819 0.00022593  0.00000663  0.0024839 0.0000
  7  -1264.3083825956  -0.000003298608 0.00053147  0.00000797  0.0012055 0.0000
  8  -1264.3083837383  -0.000001142701 0.00076278  0.00001040  0.0003781 0.0000
  9  -1264.3083839519  -0.000000213661 0.00016983  0.00000270  0.0000903 0.0000
 10  -1264.3083839822  -0.000000030269 0.00023750  0.00000226  0.0000805 0.0000
 11  -1264.3083840685  -0.000000086280 0.00031083  0.00000283  0.0000242 0.0000
 12  -1264.3083841349  -0.000000066404 0.00003757  0.00000034  0.0000330 0.0000
 13  -1264.3083841217   0.000000013169 0.00005059  0.00000047  0.0000346 0.0000
 14  -1264.3083840662   0.000000055561 0.00052149  0.00000475  0.0000324 0.0000
 15  -1264.3083842058  -0.000000139628 0.00020261  0.00000184  0.0000509 0.0000
 16  -1264.3083842964  -0.000000090646 0.00007845  0.00000072  0.0000581 0.0000
 17  -1264.3083843287  -0.000000032278 0.00022733  0.00000206  0.0000609 0.0000
 18  -1264.3083843652  -0.000000036505 0.00065806  0.00000598  0.0000689 0.0000
 19  -1264.3083841788   0.000000186426 0.00083424  0.00000757  0.0000456 0.0000
               *** Restarting incremental Fock matrix formation ***
                                   *** Resetting DIIS ***
 20  -1264.3083840670   0.000000111787 0.00041109  0.00000395  0.0000168 0.0000
 21  -1264.3083841371  -0.000000070085 0.00015622  0.00000143  0.0000327 0.0000
 22  -1264.3083841312   0.000000005843 0.00010674  0.00000097  0.0000362 0.0000
 23  -1264.3083841018   0.000000029403 0.00000824  0.00000010  0.0000324 0.0000
                 **** Energy Check signals convergence ****

               *****************************************************
               *                     SUCCESS                       *
               *           SCF CONVERGED AFTER  24 CYCLES          *
               *****************************************************

Setting up the final grid:

General Integration Accuracy     IntAcc      ...  4.670
Radial Grid Type                 RadialGrid  ... Gauss-Chebyshev
Angular Grid (max. acc.)         AngularGrid ... Lebedev-302
Angular grid pruning method      GridPruning ... 3 (G Style)
Weight generation scheme         WeightScheme... Becke
Basis function cutoff            BFCut       ...    1.0000e-11
Integration weight cutoff        WCut        ...    1.0000e-14
Grids for H and He will be reduced by one unit

# of grid points (after initial pruning)     ...  13034 (   0.0 sec)
# of grid points (after weights+screening)   ...  12994 (   0.0 sec)
nearest neighbour list constructed           ...    0.0 sec
Grid point re-assignment to atoms done       ...    0.0 sec
Grid point division into batches done        ...    0.1 sec
Reduced shell lists constructed in    0.1 sec

Total number of grid points                  ...    12994
Total number of batches                      ...      204
Average number of points per batch           ...       63
Average number of grid points per atom       ...     6497
Average number of shells per batch           ...    16.20 (47.65%)
Average number of basis functions per batch  ...    35.60 (30.69%)
Average number of large shells per batch     ...     9.80 (60.49%)
Average number of large basis fcns per batch ...    22.60 (63.48%)
Maximum spatial batch extension              ...  31.41, 28.57, 18.88 au
Average spatial batch extension              ...   1.02,  0.93,  0.73 au

Final grid set up in    0.1 sec
Final integration                            ... done (   0.1 sec)
Change in XC energy                          ...     0.001610333
Integrated number of electrons               ...    27.000008735
Previous integrated no of electrons          ...    27.002141260
Total Energy       :        -1264.30677377 Eh          -34403.53636 eV
  Last Energy change         ...   -2.9870e-09  Tolerance :   1.0000e-08
  Last MAX-Density change    ...    1.1984e-06  Tolerance :   1.0000e-07
             **** THE GBW FILE WAS UPDATED (31_FeH.gbw) ****
             **** DENSITY FILE WAS UPDATED (31_FeH.scfp) ****
             **** ENERGY FILE WAS UPDATED (31_FeH.en.tmp) ****
----------------------
UHF SPIN CONTAMINATION
----------------------

Warning: in a DFT calculation there is little theoretical justification to 
         calculate <S**2> as in Hartree-Fock theory. We will do it anyways
         but you should keep in mind that the values have only limited relevance

Expectation value of <S**2>     :     3.790945
Ideal value S*(S+1) for S=1.5   :     3.750000
Deviation                       :     0.040945

             **** THE GBW FILE WAS UPDATED (31_FeH.gbw) ****
             **** DENSITY FILE WAS UPDATED (31_FeH.scfp) ****
Total SCF time: 0 days 0 hours 0 min 4 sec 


-------------------------------------------------------------------------------
                          DFT DISPERSION CORRECTION                            
                                                                               
                              DFTD3 V3.1  Rev 1                                
                          USING Becke-Johnson damping                          
-------------------------------------------------------------------------------
-------------------------   ----------------
Dispersion correction           -0.000575378
-------------------------   ----------------


-------------------------   --------------------
FINAL SINGLE POINT ENERGY     -1264.307349149849
-------------------------   --------------------



           ************************************************************
           *        Program running with 24 parallel MPI-processes    *
           *              working on a common directory               *
           ************************************************************
------------------------------------------------------------------------------
                         ORCA SCF GRADIENT CALCULATION
------------------------------------------------------------------------------

Gradient of the Kohn-Sham DFT energy:
Kohn-Sham wavefunction type      ... UKS
Hartree-Fock exchange scaling    ...    0.000
Number of operators              ...    2
Number of atoms                  ...    2
Basis set dimensions             ...  116
Integral neglect threshold       ... 2.5e-11
Integral primitive cutoff        ... 2.5e-12

Nuclear repulsion gradient       ... done
One Electron Gradient            ... done
Pre-screening matrix             ... done
RI-J gradient                    ... done
Exchange-correlation gradient    ... done
Dispersion correction            ... done

------------------
CARTESIAN GRADIENT
------------------

   1   Fe  :   -0.000000115    0.000000295   -0.024107166
   2   H   :    0.000000117   -0.000000295    0.023510522

Difference to translation invariance:
           :    0.0000000019    0.0000000004   -0.0005966438

Norm of the cartesian gradient     ...    0.0336734335
RMS gradient                       ...    0.0137471216
MAX gradient                       ...    0.0241071661

-------
TIMINGS
-------

Total SCF gradient time            ...        4.146 sec

One electron gradient       ....       0.048 sec  (  1.2%)
Prescreening matrices       ....       3.333 sec  ( 80.4%)
RI-J Coulomb gradient       ....       0.175 sec  (  4.2%)
XC gradient                 ....       0.049 sec  (  1.2%)
------------------------------------------------------------------------------
                         ORCA GEOMETRY RELAXATION STEP
------------------------------------------------------------------------------

Reading the OPT-File                    .... done
Getting information on internals        .... done
Copying old internal coords+grads       .... done
Making the new internal coordinates     .... (new redundants).... done
[...]
  39   0.0000       0.302093         8.2204 
  40   0.0000       0.491201        13.3663 
  41   0.0000       0.521747        14.1975 
  42   0.0000       0.674803        18.3623 
  43   0.0000       0.694131        18.8883 
  44   0.0000       0.696304        18.9474 
  45   0.0000       0.721750        19.6398 
  46   0.0000       0.721750        19.6398 
  47   0.0000       0.809276        22.0215 
  48   0.0000       0.809276        22.0215 
  49   0.0000       0.842330        22.9210 
  50   0.0000       0.842330        22.9210 
  51   0.0000       0.861689        23.4477 
  52   0.0000       0.942543        25.6479 
  53   0.0000       0.942543        25.6479 
  54   0.0000       0.964530        26.2462 
  55   0.0000       0.993302        27.0291 
  56   0.0000       0.995713        27.0947 
  57   0.0000       1.030522        28.0419 
  58   0.0000       1.030522        28.0419 
  59   0.0000       1.088690        29.6248 
  60   0.0000       1.090299        29.6685 
  61   0.0000       1.320593        35.9352 
  62   0.0000       1.411502        38.4089 
  63   0.0000       1.627656        44.2908 
  64   0.0000       1.627656        44.2908 
  65   0.0000       2.128041        57.9069 
  66   0.0000       2.609689        71.0133 
  67   0.0000       2.609689        71.0133 
  68   0.0000       2.644834        71.9696 
  69   0.0000       2.644834        71.9696 
  70   0.0000       2.678691        72.8909 
  71   0.0000       2.679780        72.9205 
  72   0.0000       2.737393        74.4883 
  73   0.0000       2.867668        78.0332 
  74   0.0000       2.953133        80.3588 
  75   0.0000       2.953133        80.3588 
  76   0.0000       2.997679        81.5710 
  77   0.0000       3.261704        88.7555 
  78   0.0000       3.263117        88.7939 
  79   0.0000       3.281209        89.2862 
  80   0.0000       3.283938        89.3605 
  81   0.0000       3.287467        89.4565 
  82   0.0000       3.287467        89.4565 
  83   0.0000       3.297153        89.7201 
  84   0.0000       3.328426        90.5711 
  85   0.0000       3.328426        90.5711 
  86   0.0000       3.536400        96.2303 
  87   0.0000       3.838702       104.4564 
  88   0.0000       3.850104       104.7667 
  89   0.0000       4.123932       112.2179 
  90   0.0000       4.123932       112.2179 
  91   0.0000       4.423291       120.3639 
  92   0.0000       4.424070       120.3851 
  93   0.0000       4.494546       122.3028 
  94   0.0000       4.494546       122.3028 
  95   0.0000       4.825534       131.3095 
  96   0.0000       4.825534       131.3095 
  97   0.0000       4.850059       131.9768 
  98   0.0000       5.178474       140.9134 
  99   0.0000       5.863384       159.5508 
 100   0.0000       8.803362       239.5517 
 101   0.0000       8.803362       239.5517 
 102   0.0000       8.889594       241.8982 
 103   0.0000       8.889967       241.9083 
 104   0.0000       8.946823       243.4554 
 105   0.0000       8.946823       243.4554 
 106   0.0000       9.254852       251.8373 
 107   0.0000       9.596618       261.1373 
 108   0.0000       9.596922       261.1455 
 109   0.0000       9.647876       262.5321 
 110   0.0000       9.647876       262.5321 
 111   0.0000       9.697520       263.8829 
 112   0.0000       9.698065       263.8978 
 113   0.0000       9.912436       269.7311 
 114   0.0000       9.912436       269.7311 
 115   0.0000      10.200480       277.5692 

                 SPIN DOWN ORBITALS
  NO   OCC          E(Eh)            E(eV) 
   0   1.0000    -255.184905     -6943.9343 
   1   1.0000     -29.539076      -803.7991 
   2   1.0000     -25.421552      -691.7556 
   3   1.0000     -25.421552      -691.7556 
   4   1.0000     -25.410865      -691.4648 
   5   1.0000      -3.193411       -86.8971 
   6   1.0000      -1.989749       -54.1438 
   7   1.0000      -1.989749       -54.1438 
   8   1.0000      -1.985714       -54.0340 
   9   1.0000      -0.252493        -6.8707 
  10   1.0000      -0.120353        -3.2750 
  11   1.0000      -0.120353        -3.2750 
  12   0.0000      -0.095034        -2.5860 
  13   0.0000      -0.083411        -2.2697 
  14   0.0000      -0.083141        -2.2624 
  15   0.0000      -0.043349        -1.1796 
  16   0.0000      -0.015115        -0.4113 
  17   0.0000      -0.015115        -0.4113 
  18   0.0000       0.012791         0.3481 
  19   0.0000       0.022164         0.6031 
  20   0.0000       0.040908         1.1132 
  21   0.0000       0.040908         1.1132 
  22   0.0000       0.060460         1.6452 
  23   0.0000       0.064799         1.7633 
  24   0.0000       0.064799         1.7633 
  25   0.0000       0.070980         1.9315 
  26   0.0000       0.071455         1.9444 
  27   0.0000       0.080014         2.1773 
  28   0.0000       0.126696         3.4476 
  29   0.0000       0.174937         4.7603 
  30   0.0000       0.192965         5.2508 
  31   0.0000       0.192965         5.2508 
  32   0.0000       0.222069         6.0428 
  33   0.0000       0.249744         6.7959 
  34   0.0000       0.249744         6.7959 
  35   0.0000       0.292228         7.9519 
  36   0.0000       0.293787         7.9944 
  37   0.0000       0.308029         8.3819 
  38   0.0000       0.308029         8.3819 
  39   0.0000       0.316047         8.6001 
  40   0.0000       0.514386        13.9971 
  41   0.0000       0.528752        14.3881 
  42   0.0000       0.684039        18.6136 
  43   0.0000       0.695771        18.9329 
  44   0.0000       0.697977        18.9929 
  45   0.0000       0.763070        20.7642 
  46   0.0000       0.763070        20.7642 
  47   0.0000       0.848584        23.0911 
  48   0.0000       0.848584        23.0911 
  49   0.0000       0.860479        23.4148 
  50   0.0000       0.863724        23.5031 
  51   0.0000       0.863724        23.5031 
  52   0.0000       0.949264        25.8308 
  53   0.0000       0.949264        25.8308 
  54   0.0000       1.003576        27.3087 
  55   0.0000       1.016975        27.6733 
  56   0.0000       1.020420        27.7670 
  57   0.0000       1.045421        28.4473 
  58   0.0000       1.045421        28.4473 
  59   0.0000       1.160495        31.5787 
  60   0.0000       1.160944        31.5909 
  61   0.0000       1.337849        36.4047 
  62   0.0000       1.432516        38.9808 
  63   0.0000       1.647241        44.8237 
  64   0.0000       1.647241        44.8237 
  65   0.0000       2.143123        58.3173 
  66   0.0000       2.697546        73.4040 
  67   0.0000       2.697546        73.4040 
  68   0.0000       2.718416        73.9718 
  69   0.0000       2.719444        73.9998 
  70   0.0000       2.720731        74.0348 
  71   0.0000       2.720731        74.0348 
  72   0.0000       2.790138        75.9235 
  73   0.0000       2.948153        80.2233 
  74   0.0000       3.017580        82.1125 
  75   0.0000       3.045111        82.8617 
  76   0.0000       3.045111        82.8617 
  77   0.0000       3.309695        90.0614 
  78   0.0000       3.312534        90.1386 
  79   0.0000       3.332294        90.6763 
  80   0.0000       3.332294        90.6763 
  81   0.0000       3.336326        90.7861 
  82   0.0000       3.357334        91.3577 
  83   0.0000       3.359463        91.4156 
  84   0.0000       3.360251        91.4371 
  85   0.0000       3.360251        91.4371 
  86   0.0000       3.587069        97.6091 
  87   0.0000       3.844764       104.6214 
  88   0.0000       3.857568       104.9698 
  89   0.0000       4.127996       112.3285 
  90   0.0000       4.127996       112.3285 
  91   0.0000       4.517112       122.9169 
  92   0.0000       4.517112       122.9169 
  93   0.0000       4.539574       123.5281 
  94   0.0000       4.540111       123.5427 
  95   0.0000       4.877428       132.7216 
  96   0.0000       4.877428       132.7216 
  97   0.0000       4.880547       132.8064 
  98   0.0000       5.241348       142.6243 
  99   0.0000       5.914868       160.9518 
 100   0.0000       8.979907       244.3557 
 101   0.0000       8.979907       244.3557 
 102   0.0000       8.982831       244.4353 
 103   0.0000       8.983034       244.4408 
 104   0.0000       9.074896       246.9405 
 105   0.0000       9.074896       246.9405 
 106   0.0000       9.389991       255.5146 
 107   0.0000       9.729544       264.7544 
 108   0.0000       9.729868       264.7632 
 109   0.0000       9.731981       264.8207 
 110   0.0000       9.731981       264.8207 
 111   0.0000       9.782615       266.1985 
 112   0.0000       9.783695       266.2279 
 113   0.0000      10.005983       272.2766 
 114   0.0000      10.005983       272.2766 
 115   0.0000      10.304396       280.3969 

                    ********************************
                    * MULLIKEN POPULATION ANALYSIS *
                    ********************************

--------------------------------------------
MULLIKEN ATOMIC CHARGES AND SPIN POPULATIONS
--------------------------------------------
   0 Fe:    0.006045    3.131936
   1 H :   -0.006045   -0.131936
Sum of atomic charges         :    0.0000000
Sum of atomic spin populations:    3.0000000

-----------------------------------------------------
MULLIKEN REDUCED ORBITAL CHARGES AND SPIN POPULATIONS
-----------------------------------------------------
CHARGE
  0 Fes       :     6.921706  s :     6.921706
      pz      :     4.111964  p :    12.117099
      px      :     4.002567
      py      :     4.002567
      dz2     :     0.970794  d :     6.950250
      dxz     :     1.989881
      dyz     :     1.989880
      dx2y2   :     0.999811
      dxy     :     0.999884
      f0      :     0.004516  f :     0.004802
      f+1     :     0.000070
      f-1     :     0.000070
      f+2     :     0.000076
      f-2     :     0.000070
      f+3     :     0.000000
      f-3     :     0.000000
      g0      :     0.000010  g :     0.000099
      g+1     :     0.000017
      g-1     :     0.000017
      g+2     :     0.000028
      g-2     :     0.000027
      g+3     :     0.000000
      g-3     :     0.000000
      g+4     :     0.000000
      g-4     :     0.000000
  1 H s       :     1.003912  s :     1.003912
      pz      :    -0.013344  p :     0.001374
      px      :     0.007359
      py      :     0.007359
      dz2     :     0.000443  d :     0.000759
      dxz     :     0.000106
      dyz     :     0.000106
      dx2y2   :     0.000086
      dxy     :     0.000019

SPIN
  0 Fes       :     0.415545  s :     0.415545
      pz      :    -0.025102  p :    -0.023939
      px      :     0.000582
      py      :     0.000582
      dz2     :     0.731876  d :     2.740622
      dxz     :     0.004526
      dyz     :     0.004526
      dx2y2   :     0.999811
      dxy     :     0.999884
      f0      :    -0.000680  f :    -0.000444
      f+1     :     0.000045
      f-1     :     0.000045
      f+2     :     0.000076
      f-2     :     0.000070
      f+3     :     0.000000
      f-3     :     0.000000
      g0      :     0.000091  g :     0.000152
      g+1     :     0.000003
      g-1     :     0.000003
      g+2     :     0.000028
      g-2     :     0.000027
      g+3     :     0.000000
      g-3     :     0.000000
      g+4     :     0.000000
      g-4     :    -0.000000
  1 H s       :    -0.120236  s :    -0.120236
      pz      :    -0.001378  p :    -0.009946
      px      :    -0.004284
      py      :    -0.004284
      dz2     :    -0.000116  d :    -0.001753
      dxz     :    -0.000871
      dyz     :    -0.000871
      dx2y2   :     0.000086
      dxy     :     0.000019


                     *******************************
                     * LOEWDIN POPULATION ANALYSIS *
                     *******************************

-------------------------------------------
LOEWDIN ATOMIC CHARGES AND SPIN POPULATIONS
-------------------------------------------
   0 Fe:    0.688776    2.999788
   1 H :   -0.688776    0.000212

----------------------------------------------------
LOEWDIN REDUCED ORBITAL CHARGES AND SPIN POPULATIONS
----------------------------------------------------
CHARGE
  0 Fes       :     6.580301  s :     6.580301
      pz      :     4.054432  p :    11.976155
      px      :     3.960861
      py      :     3.960861
      dz2     :     0.966986  d :     6.730070
      dxz     :     1.887843
      dyz     :     1.887842
      dx2y2   :     0.993679
      dxy     :     0.993719
      f0      :     0.017385  f :     0.023216
      f+1     :     0.002619
      f-1     :     0.002619
      f+2     :     0.000302
      f-2     :     0.000290
      f+3     :     0.000000
      f-3     :     0.000000
      g0      :     0.000877  g :     0.001482
      g+1     :     0.000255
      g-1     :     0.000255
      g+2     :     0.000048
      g-2     :     0.000048
      g+3     :     0.000000
      g-3     :     0.000000
      g+4     :     0.000000
      g-4     :     0.000000
  1 H s       :     1.048882  s :     1.048882
      pz      :     0.196842  p :     0.343341
      px      :     0.073249
      py      :     0.073249
      dz2     :     0.134295  d :     0.296553
      dxz     :     0.075173
      dyz     :     0.075173
      dx2y2   :     0.005971
      dxy     :     0.005943

SPIN
  0 Fes       :     0.348800  s :     0.348800
      pz      :    -0.042886  p :    -0.040382
      px      :     0.001252
      py      :     0.001252
      dz2     :     0.692778  d :     2.693451
      dxz     :     0.006637
      dyz     :     0.006638
      dx2y2   :     0.993679
      dxy     :     0.993719
      f0      :    -0.003133  f :    -0.002340
      f+1     :     0.000100
      f-1     :     0.000100
      f+2     :     0.000302
      f-2     :     0.000290
      f+3     :     0.000000
      f-3     :     0.000000
      g0      :    -0.000038  g :     0.000259
      g+1     :     0.000100
      g-1     :     0.000100
      g+2     :     0.000048
      g-2     :     0.000048
      g+3     :     0.000000
      g-3     :     0.000000
      g+4     :     0.000000
      g-4     :    -0.000000
  1 H s       :    -0.030006  s :    -0.030006
      pz      :     0.032194  p :     0.017955
      px      :    -0.007119
      py      :    -0.007119
      dz2     :     0.002291  d :     0.012264
      dxz     :    -0.000971
      dyz     :    -0.000971
      dx2y2   :     0.005971
      dxy     :     0.005943


                      *****************************
                      * MAYER POPULATION ANALYSIS *
                      *****************************

  NA   - Mulliken gross atomic population
  ZA   - Total nuclear charge
  QA   - Mulliken gross atomic charge
  VA   - Mayer's total valence
  BVA  - Mayer's bonded valence
  FA   - Mayer's free valence

  ATOM       NA         ZA         QA         VA         BVA        FA
  0 Fe    25.9940    26.0000     0.0060     4.0161     1.0225     2.9935
  1 H      1.0060     1.0000    -0.0060     1.0421     1.0225     0.0196

  Mayer bond orders larger than 0.100000
B(  0-Fe,  1-H ) :   1.0225 

-------
TIMINGS
-------

Total SCF time: 0 days 0 hours 0 min 2 sec 

Total time                  ....       2.206 sec
Sum of individual times     ....       2.048 sec  ( 92.8%)

Fock matrix formation       ....       1.877 sec  ( 85.1%)
  Split-RI-J                ....       1.491 sec  ( 79.4% of F)
  XC integration            ....       0.188 sec  ( 10.0% of F)
    Basis function eval.    ....       0.019 sec  ( 10.0% of XC)
    Density eval.           ....       0.023 sec  ( 12.4% of XC)
    XC-Functional eval.     ....       0.006 sec  (  3.2% of XC)
    XC-Potential eval.      ....       0.052 sec  ( 27.4% of XC)
Diagonalization             ....       0.042 sec  (  1.9%)
Density matrix formation    ....       0.007 sec  (  0.3%)
Population analysis         ....       0.006 sec  (  0.3%)
Initial guess               ....       0.009 sec  (  0.4%)
Orbital Transformation      ....       0.000 sec  (  0.0%)
Orbital Orthonormalization  ....       0.005 sec  (  0.2%)
DIIS solution               ....       0.015 sec  (  0.7%)
Grid generation             ....       0.091 sec  (  4.1%)


-------------------------------------------------------------------------------
                          DFT DISPERSION CORRECTION                            
                                                                               
                              DFTD3 V3.1  Rev 1                                
                          USING Becke-Johnson damping                          
-------------------------------------------------------------------------------
The TPSS functional is recognized
Active option DFTDOPT                   ...         4   

molecular C6(AA) [au] = 297.697841 


            DFT-D V3
 parameters
 s6 scaling factor         :     1.0000 
 a1 scaling factor         :     0.4535 
 s8 scaling factor         :     1.9435 
 a2 scaling factor         :     4.4752 
 ad hoc parameters k1-k3   :    16.0000     1.3333    -4.0000 

 Edisp/kcal,au: -0.295378178042  -0.000470715039 
 E6   /kcal   :  -0.128436549 
 E8   /kcal   :  -0.166941629 
 % E8         :  56.517929101 

-------------------------   ----------------
Dispersion correction           -0.000470715
-------------------------   ----------------


-------------------------   --------------------
FINAL SINGLE POINT ENERGY     -1264.310806730575
-------------------------   --------------------

                                *** OPTIMIZATION RUN DONE ***

                            ***************************************
                            *     ORCA property calculations      *
                            ***************************************

                                    ---------------------
                                    Active property flags
                                    ---------------------
   (+) Dipole Moment


------------------------------------------------------------------------------
                       ORCA ELECTRIC PROPERTIES CALCULATION
------------------------------------------------------------------------------

Dipole Moment Calculation                       ... on
Quadrupole Moment Calculation                   ... off
Polarizability Calculation                      ... off
GBWName                                         ... 31_FeH.gbw
Electron density file                           ... 31_FeH.scfp
The origin for moment calculation is the CENTER OF MASS  = ( 0.000000,  0.000000  0.483291)

-------------
DIPOLE MOMENT
-------------
                                X             Y             Z
Electronic contribution:      0.00000       0.00021      -2.53436
Nuclear contribution   :      0.00000       0.00000       1.52035
                        -----------------------------------------
Total Dipole Moment    :      0.00000       0.00021      -1.01401
                        -----------------------------------------
Magnitude (a.u.)       :      1.01401
Magnitude (Debye)      :      2.57740



--------------------
Rotational spectrum 
--------------------
 
Rotational constants in cm-1:     0.000000     7.149016     7.149016 
Rotational constants in MHz :     0.000000 214322.097628 214322.097628 

 Dipole components along the rotational axes: 
x,y,z [a.u.] :    -1.014005     0.000212     0.000001 
x,y,z [Debye]:    -2.577396     0.000538     0.000003 

 

Timings for individual modules:

Sum of individual times         ...       69.442 sec (=   1.157 min)
GTO integral calculation        ...       17.492 sec (=   0.292 min)  25.2 %
SCF iterations                  ...       24.536 sec (=   0.409 min)  35.3 %
SCF Gradient evaluation         ...       27.219 sec (=   0.454 min)  39.2 %
Geometry relaxation             ...        0.195 sec (=   0.003 min)   0.3 %
                             ****ORCA TERMINATED NORMALLY****
TOTAL RUN TIME: 0 days 0 hours 1 minutes 10 seconds 385 msec
