
                                 *****************
                                 * O   R   C   A *
                                 *****************

           --- An Ab Initio, DFT and Semiempirical electronic structure package ---

                  #######################################################
                  #                        -***-                        #
                  #          Department of theory and spectroscopy      #
                  #               Directorship: Frank Neese             #
                  #        Max Planck Institute fuer Kohlenforschung    #
                  #                Kaiser Wilhelm Platz 1               #
                  #                 D-45470 Muelheim/Ruhr               #
                  #                      Germany                        #
                  #                                                     #
                  #                  All rights reserved                #
                  #                        -***-                        #
                  #######################################################


                         Program Version 4.2.0 -  RELEASE  -


 With contributions from (in alphabetic order):
   Daniel Aravena         : Magnetic Suceptibility
   Michael Atanasov       : Ab Initio Ligand Field Theory (pilot matlab implementation)
   Alexander A. Auer      : GIAO ZORA, VPT2
   Ute Becker             : Parallelization
   Giovanni Bistoni       : ED, misc. LED, open-shell LED, HFLED
   Martin Brehm           : Molecular dynamics
   Dmytro Bykov           : SCF Hessian
   Vijay G. Chilkuri      : MRCI spin determinant printing, contributions to CSF-ICE
   Dipayan Datta          : RHF DLPNO-CCSD density
   Achintya Kumar Dutta   : EOM-CC, STEOM-CC
   Dmitry Ganyushin       : Spin-Orbit,Spin-Spin,Magnetic field MRCI
   Miquel Garcia          : C-PCM Hessian, Gaussian charge scheme
   Yang Guo               : DLPNO-NEVPT2, CIM, IAO-localization
   Andreas Hansen         : Spin unrestricted coupled pair/coupled cluster methods
   Benjamin Helmich-Paris : CASSCF linear response (MC-RPA)
   Lee Huntington         : MR-EOM, pCC
   Robert Izsak           : Overlap fitted RIJCOSX, COSX-SCS-MP3, EOM
   Christian Kollmar      : KDIIS, OOCD, Brueckner-CCSD(T), CCSD density
   Simone Kossmann        : Meta GGA functionals, TD-DFT gradient, OOMP2, MP2 Hessian
   Martin Krupicka        : AUTO-CI
   Lucas Lang             : DCDCAS
   Dagmar Lenk            : GEPOL surface, SMD
   Dimitrios Liakos       : Extrapolation schemes; Compound Job, initial MDCI parallelization
   Dimitrios Manganas     : Further ROCIS development; embedding schemes
   Dimitrios Pantazis     : SARC Basis sets
   Taras Petrenko         : DFT Hessian,TD-DFT gradient, ASA, ECA, R-Raman, ABS, FL, XAS/XES, NRVS
   Peter Pinski           : DLPNO-MP2, DLPNO-MP2 Gradient
   Christoph Reimann      : Effective Core Potentials
   Marius Retegan         : Local ZFS, SOC
   Christoph Riplinger    : Optimizer, TS searches, QM/MM, DLPNO-CCSD(T), (RO)-DLPNO pert. Triples
   Tobias Risthaus        : Range-separated hybrids, TD-DFT gradient, RPA, STAB
   Michael Roemelt        : Original ROCIS implementation
   Masaaki Saitow         : Open-shell DLPNO-CCSD energy and density
   Barbara Sandhoefer     : DKH picture change effects
   Avijit Sen             : IP-ROCIS
   Kantharuban Sivalingam : CASSCF convergence, NEVPT2, FIC-MRCI
   Bernardo de Souza      : ESD, SOC TD-DFT
   Georgi Stoychev        : AutoAux, RI-MP2 NMR
   Willem Van den Heuvel  : Paramagnetic NMR
   Boris Wezisla          : Elementary symmetry handling
   Frank Wennmohs         : Technical directorship


 We gratefully acknowledge several colleagues who have allowed us to
 interface, adapt or use parts of their codes:
   Stefan Grimme, W. Hujo, H. Kruse,             : VdW corrections, initial TS optimization,
                  C. Bannwarth                     DFT functionals, gCP, sTDA/sTD-DF
   Ed Valeev, F. Pavosevic, A. Kumar             : LibInt (2-el integral package), F12 methods
   Garnet Chan, S. Sharma, J. Yang, R. Olivares  : DMRG
   Ulf Ekstrom                                   : XCFun DFT Library
   Mihaly Kallay                                 : mrcc  (arbitrary order and MRCC methods)
   Andreas Klamt, Michael Diedenhofen            : otool_cosmo (COSMO solvation model)
   Jiri Pittner, Ondrej Demel                    : Mk-CCSD
   Frank Weinhold                                : gennbo (NPA and NBO analysis)
   Christopher J. Cramer and Donald G. Truhlar   : smd solvation model
   Lars Goerigk                                  : TD-DFT with DH, B97 family of functionals
   V. Asgeirsson, H. Jonsson                     : NEB implementation
   FAccTs GmbH                                   : IRC, NEB, NEB-TS, Multilevel, MM, QM/MM, CI optimization
   S Lehtola, MJT Oliveira, MAL Marques          : LibXC Library


 Your calculation uses the libint2 library for the computation of 2-el integrals
 For citations please refer to: http://libint.valeyev.net

 Your ORCA version has been built with support for libXC version: 4.2.3
 For citations please refer to: https://tddft.org/programs/libxc/

 This ORCA versions uses:
   CBLAS   interface :  Fast vector & matrix operations
   LAPACKE interface :  Fast linear algebra routines
   SCALAPACK package :  Parallel linear algebra routines


Your calculation utilizes the atom-pairwise dispersion correction
with the Becke-Johnson damping scheme (D3BJ)
Cite in your paper:
S.Grimme, S.Ehrlich, L.Goerigk, J Comput Chem, (2011), 32, 1456–1465 
S.Grimme, J.Antony, S.Ehrlich and H.Krieg, J.Chem.Phys., 132, (2010), 154104 
   

----- Orbital basis set information -----
Your calculation utilizes the basis: aug-cc-pVTZ 
    H, B-Ne : Obtained from the ccRepo (grant-hill.group.shef.ac.uk/ccrepo) Feb. 2017
              R. A. Kendall, T. H. Dunning, Jr., R. J. Harrison, J. Chem. Phys. 96, 6796 (1992)
         He : Obtained from the ccRepo (grant-hill.group.shef.ac.uk/ccrepo) Feb. 2017
              D. E. Woon, T. H. Dunning, Jr., J. Chem. Phys. 100, 2975 (1994)
  Li-Be, Na : Obtained from the ccRepo (grant-hill.group.shef.ac.uk/ccrepo) Feb. 2017
              B. P. Prascher, D. E. Woon, K. A. Peterson, T. H. Dunning, Jr., A. K. Wilson, Theor. Chem. Acc. 128, 69 (2011)
         Mg : Obtained from the Peterson Research Group Website (tyr0.chem.wsu.edu/~kipeters) Feb. 2017
              B. P. Prascher, D. E. Woon, K. A. Peterson, T. H. Dunning, Jr., A. K. Wilson, Theor. Chem. Acc. 128, 69 (2011)
      Al-Ar : Obtained from the ccRepo (grant-hill.group.shef.ac.uk/ccrepo) Feb. 2017
              D. E. Woon, T. H. Dunning, Jr., J. Chem. Phys. 98, 1358 (1993)
      Sc-Zn : Obtained from the ccRepo (grant-hill.group.shef.ac.uk/ccrepo) Feb. 2017
              N. B. Balabanov, K. A. Peterson, J. Chem. Phys. 123, 064107 (2005)
              N. B. Balabanov, K. A. Peterson, J. Chem. Phys. 125, 074110 (2006)
      Ga-Kr : Obtained from the ccRepo (grant-hill.group.shef.ac.uk/ccrepo) Feb. 2017
              A. K. Wilson, D. E. Woon, K. A. Peterson, T. H. Dunning, Jr., J. Chem. Phys. 110, 7667 (1999)
     Ag, Au : Obtained from the Peterson Research Group Website (tyr0.chem.wsu.edu/~kipeters) Feb. 2017
              K. A. Peterson, C. Puzzarini, Theor. Chem. Acc. 114, 283 (2005)

----- AuxJ basis set information -----
Your calculation utilizes the auxiliary basis: def2/J
   F. Weigend, Phys. Chem. Chem. Phys. 8, 1057 (2006).

================================================================================
                                        WARNINGS
                       Please study these warnings very carefully!
================================================================================


WARNING: your system is open-shell and RHF/RKS was chosen
  ===> : WILL SWITCH to UHF/UKS


WARNING: Geometry Optimization
  ===> : Switching off AutoStart
         For restart on a previous wavefunction, please use MOREAD

INFO   : the flag for use of LIBINT has been found!

================================================================================
                                       INPUT FILE
================================================================================
NAME = 34_FeBr.in
|  1> #
|  2> # 34_FeBr tpss/aug-cc-pvtz
|  3> #
|  4> ! tpss d3bj aug-cc-pvtz def2/j opt xyzfile
|  5> 
|  6> *xyz 0 6
|  7> Fe 0.0 0.0 0.0
|  8> Br 0.0 0.0 2.0
|  9> *
| 10> 
| 11> %pal
| 12> nprocs 24
| 13> end
| 14> 
| 15> 
| 16>                          ****END OF INPUT****
================================================================================

                       *****************************
                       * Geometry Optimization Run *
                       *****************************

Geometry optimization settings:
Update method            Update   .... BFGS
Choice of coordinates    CoordSys .... Z-matrix Internals
Initial Hessian          InHess   .... Almoef's Model

Convergence Tolerances:
Energy Change            TolE     ....  5.0000e-06 Eh
Max. Gradient            TolMAXG  ....  3.0000e-04 Eh/bohr
RMS Gradient             TolRMSG  ....  1.0000e-04 Eh/bohr
Max. Displacement        TolMAXD  ....  4.0000e-03 bohr
RMS Displacement         TolRMSD  ....  2.0000e-03 bohr
Strict Convergence                ....  False
------------------------------------------------------------------------------
                        ORCA OPTIMIZATION COORDINATE SETUP
------------------------------------------------------------------------------

The optimization will be done in new redundant internal coordinates
Making redundant internal coordinates   ...  (new redundants) done
Evaluating the initial hessian          ...  (Almloef) done
Evaluating the coordinates              ...  done
Calculating the B-matrix                .... done
Calculating the G-matrix                .... done
Diagonalizing the G-matrix              .... done
The first mode is                       ....    0
The number of degrees of freedom        ....    1

    -----------------------------------------------------------------
                    Redundant Internal Coordinates


    -----------------------------------------------------------------
         Definition                    Initial Value    Approx d2E/dq
    -----------------------------------------------------------------
      1. B(Br  1,Fe  0)                  2.0000         2.260171   
    -----------------------------------------------------------------

Number of atoms                         .... 2
Number of degrees of freedom            .... 1

         *************************************************************
         *                GEOMETRY OPTIMIZATION CYCLE   1            *
         *************************************************************
---------------------------------
CARTESIAN COORDINATES (ANGSTROEM)
---------------------------------
  Fe     0.000000    0.000000    0.000000
  Br     0.000000    0.000000    2.000000

----------------------------
CARTESIAN COORDINATES (A.U.)
----------------------------
  NO LB      ZA    FRAG     MASS         X           Y           Z
   0 Fe   26.0000    0    55.850    0.000000    0.000000    0.000000
   1 Br   35.0000    0    79.900    0.000000    0.000000    3.779452

--------------------------------
INTERNAL COORDINATES (ANGSTROEM)
--------------------------------
 Fe     0   0   0     0.000000000000     0.00000000     0.00000000
 Br     1   0   0     2.000000000000     0.00000000     0.00000000

---------------------------
INTERNAL COORDINATES (A.U.)
---------------------------
 Fe     0   0   0     0.000000000000     0.00000000     0.00000000
 Br     1   0   0     3.779452267843     0.00000000     0.00000000

---------------------
BASIS SET INFORMATION
---------------------
There are 2 groups of distinct atoms

 Group   1 Type Fe  : 116s77p23d3f2g contracted to 8s7p5d3f2g pattern {19191919191911/151515151511/77711/111/11}
 Group   2 Type Br  : 75s36p10d2f contracted to 7s6p4d2f pattern {18181818111/111111111/7111/11}

Atom   0Fe   basis set group =>   1
Atom   1Br   basis set group =>   2
---------------------------------
AUXILIARY/J BASIS SET INFORMATION
---------------------------------
There are 2 groups of distinct atoms

 Group   1 Type Fe  : 19s5p5d3f3g contracted to 8s5p5d2f3g pattern {121111111/11111/11111/21/111}
 Group   2 Type Br  : 19s5p5d3f1g contracted to 8s4p3d2f1g pattern {121111111/2111/311/21/1}

Atom   0Fe   basis set group =>   1
Atom   1Br   basis set group =>   2


           ************************************************************
           *        Program running with 24 parallel MPI-processes    *
           *              working on a common directory               *
           ************************************************************
------------------------------------------------------------------------------
                           ORCA GTO INTEGRAL CALCULATION
                           -- RI-GTO INTEGRALS CHOSEN --
------------------------------------------------------------------------------

                         BASIS SET STATISTICS AND STARTUP INFO

Gaussian basis set:
 # of primitive gaussian shells          ...  344
 # of primitive gaussian functions       ...  748
 # of contracted shells                  ...   44
 # of contracted basis functions         ...  152
 Highest angular momentum                ...    4
 Maximum contraction depth               ...   19
Auxiliary gaussian basis set:
 # of primitive gaussian shells          ...   68
 # of primitive gaussian functions       ...  196
 # of contracted shells                  ...   41
 # of contracted aux-basis functions     ...  147
 Highest angular momentum                ...    4
 Maximum contraction depth               ...   12
Ratio of auxiliary to basis functions    ...  0.97
Integral package used                  ... LIBINT
 One Electron integrals                  ... done
 Ordering auxiliary basis shells         ... done
 Integral threshhold             Thresh  ...  2.500e-11
 Primitive cut-off               TCut    ...  2.500e-12
 Pre-screening matrix                    ... done
 Shell pair data                         ... 
 Ordering of the shell pairs             ... done (   0.000 sec) 990 of 990 pairs
 Determination of significant pairs      ... done (   0.000 sec)
 Creation of shell pair data             ... done (   0.002 sec)
 Storage of shell pair data              ... done (   0.070 sec)
 Shell pair data done in (   0.072 sec)
 Computing two index integrals           ... done
 Cholesky decomposition of the V-matrix  ... done


Timings:
 Total evaluation time                   ...   3.891 sec (  0.065 min)
 One electron matrix time                ...   0.052 sec (  0.001 min) =  1.3%
 Schwartz matrix evaluation time         ...   3.737 sec (  0.062 min) = 96.0%
 Two index repulsion integral time       ...   0.001 sec (  0.000 min) =  0.0%
 Cholesky decomposition of V             ...   0.001 sec (  0.000 min) =  0.0%
 Three index repulsion integral time     ...   0.000 sec (  0.000 min) =  0.0%



           ************************************************************
           *        Program running with 24 parallel MPI-processes    *
           *              working on a common directory               *
           ************************************************************
-------------------------------------------------------------------------------
                                 ORCA SCF
-------------------------------------------------------------------------------

------------
SCF SETTINGS
------------
Hamiltonian:
 Density Functional     Method          .... DFT(GTOs)
 Exchange Functional    Exchange        .... TPSS
 Correlation Functional Correlation     .... TPSS
 LDA part of GGA corr.  LDAOpt          .... PW91-LDA
 Gradients option       PostSCFGGA      .... off
   Density functional embedding theory  .... OFF
   NL short-range parameter             ....  5.000000
 RI-approximation to the Coulomb term is turned on
   Number of auxiliary basis functions  .... 147


General Settings:
 Integral files         IntName         .... 34_FeBr
 Hartree-Fock type      HFTyp           .... UHF
 Total Charge           Charge          ....    0
 Multiplicity           Mult            ....    6
 Number of Electrons    NEL             ....   61
 Basis Dimension        Dim             ....  152
 Nuclear Repulsion      ENuc            ....    240.7756297765 Eh

Convergence Acceleration:
 DIIS                   CNVDIIS         .... on
   Start iteration      DIISMaxIt       ....    12
   Startup error        DIISStart       ....  0.200000
   # of expansion vecs  DIISMaxEq       ....     5
   Bias factor          DIISBfac        ....   1.050
   Max. coefficient     DIISMaxC        ....  10.000
 Newton-Raphson         CNVNR           .... off
 SOSCF                  CNVSOSCF        .... off
 Level Shifting         CNVShift        .... on
   Level shift para.    LevelShift      ....    0.2500
   Turn off err/grad.   ShiftErr        ....    0.0010
 Zerner damping         CNVZerner       .... off
 Static damping         CNVDamp         .... on
   Fraction old density DampFac         ....    0.7000
   Max. Damping (<1)    DampMax         ....    0.9800
   Min. Damping (>=0)   DampMin         ....    0.0000
   Turn off err/grad.   DampErr         ....    0.1000
 Fernandez-Rico         CNVRico         .... off

SCF Procedure:
 Maximum # iterations   MaxIter         ....   125
 SCF integral mode      SCFMode         .... Direct
   Integral package                     .... LIBINT
 Reset frequency        DirectResetFreq ....    20
 Integral Threshold     Thresh          ....  2.500e-11 Eh
 Primitive CutOff       TCut            ....  2.500e-12 Eh

Convergence Tolerance:
 Convergence Check Mode ConvCheckMode   .... Total+1el-Energy
 Convergence forced     ConvForced      .... 0
 Energy Change          TolE            ....  1.000e-08 Eh
 1-El. energy change                    ....  1.000e-05 Eh
 DIIS Error             TolErr          ....  5.000e-07


Diagonalization of the overlap matrix:
Smallest eigenvalue                        ... 7.335e-05
Time for diagonalization                   ...    0.006 sec
Threshold for overlap eigenvalues          ... 1.000e-08
Number of eigenvalues below threshold      ... 0
Time for construction of square roots      ...    0.003 sec
Total time needed                          ...    0.009 sec

-------------------
DFT GRID GENERATION
-------------------

General Integration Accuracy     IntAcc      ...  4.340
Radial Grid Type                 RadialGrid  ... Gauss-Chebyshev
Angular Grid (max. acc.)         AngularGrid ... Lebedev-110
Angular grid pruning method      GridPruning ... 3 (G Style)
Weight generation scheme         WeightScheme... Becke
Basis function cutoff            BFCut       ...    1.0000e-11
Integration weight cutoff        WCut        ...    1.0000e-14
Grids for H and He will be reduced by one unit

# of grid points (after initial pruning)     ...   5802 (   0.0 sec)
# of grid points (after weights+screening)   ...   5776 (   0.0 sec)
nearest neighbour list constructed           ...    0.0 sec
Grid point re-assignment to atoms done       ...    0.0 sec
Grid point division into batches done        ...    0.0 sec
Reduced shell lists constructed in    0.0 sec

Total number of grid points                  ...     5776
Total number of batches                      ...       91
Average number of points per batch           ...       63
Average number of grid points per atom       ...     2888
Average number of shells per batch           ...    24.80 (56.36%)
Average number of basis functions per batch  ...    74.40 (48.95%)
Average number of large shells per batch     ...    18.00 (72.58%)
Average number of large basis fcns per batch ...    54.80 (73.66%)
Maximum spatial batch extension              ...  18.98, 28.73, 16.15 au
Average spatial batch extension              ...   0.79,  1.06,  0.71 au

Time for grid setup =    0.032 sec

------------------------------
INITIAL GUESS: MODEL POTENTIAL
------------------------------
Loading Hartree-Fock densities                     ... done
Calculating cut-offs                               ... done
Setting up the integral package                    ... done
Initializing the effective Hamiltonian             ... done
Starting the Coulomb interaction                   ... done (   0.0 sec)
Reading the grid                                   ... done
Mapping shells                                     ... done
Starting the XC term evaluation                    ... done (   0.0 sec)
  promolecular density results
     # of electrons  =     60.999835903
     EX              =   -143.437143146
     EC              =     -2.869820302
     EX+EC           =   -146.306963448
Transforming the Hamiltonian                       ... done (   0.0 sec)
Diagonalizing the Hamiltonian                      ... done (   0.0 sec)
Back transforming the eigenvectors                 ... done (   0.0 sec)
Now organizing SCF variables                       ... done
                      ------------------
                      INITIAL GUESS DONE (   0.2 sec)
                      ------------------
--------------
SCF ITERATIONS
--------------
ITER       Energy         Delta-E        Max-DP      RMS-DP      [F,P]     Damp
               ***  Starting incremental Fock matrix formation  ***
  0  -3837.8409315484   0.000000000000 0.03221314  0.00052973  0.0756384 0.7000
  1  -3837.8550471584  -0.014115609988 0.02617414  0.00040548  0.0303320 0.7000
                               ***Turning on DIIS***
  2  -3837.8606898558  -0.005642697401 0.07326114  0.00100671  0.0336522 0.0000
  3  -3837.8742917160  -0.013601860282 0.02732921  0.00047221  0.0350772 0.0000
  4  -3837.8761034865  -0.001811770462 0.00992105  0.00013650  0.0136314 0.0000
  5  -3837.8762156282  -0.000112141657 0.00319101  0.00007234  0.0126039 0.0000
  6  -3837.8763883550  -0.000172726856 0.00172589  0.00003691  0.0038705 0.0000
  7  -3837.8764320020  -0.000043646979 0.00318932  0.00004061  0.0004946 0.0000
  8  -3837.8764384874  -0.000006485415 0.00039343  0.00000613  0.0006045 0.0000
  9  -3837.8764394148  -0.000000927427 0.00015858  0.00000182  0.0000952 0.0000
 10  -3837.8764395534  -0.000000138595 0.00001631  0.00000043  0.0000314 0.0000
 11  -3837.8764394082   0.000000145240 0.00001659  0.00000022  0.0000222 0.0000
 12  -3837.8764393976   0.000000010579 0.00003177  0.00000030  0.0000019 0.0000
 13  -3837.8764393230   0.000000074584 0.00000740  0.00000007  0.0000019 0.0000
                 **** Energy Check signals convergence ****

               *****************************************************
               *                     SUCCESS                       *
               *           SCF CONVERGED AFTER  14 CYCLES          *
               *****************************************************

Setting up the final grid:

General Integration Accuracy     IntAcc      ...  4.670
Radial Grid Type                 RadialGrid  ... Gauss-Chebyshev
Angular Grid (max. acc.)         AngularGrid ... Lebedev-302
Angular grid pruning method      GridPruning ... 3 (G Style)
Weight generation scheme         WeightScheme... Becke
Basis function cutoff            BFCut       ...    1.0000e-11
Integration weight cutoff        WCut        ...    1.0000e-14
Grids for H and He will be reduced by one unit

# of grid points (after initial pruning)     ...  19256 (   0.0 sec)
# of grid points (after weights+screening)   ...  19227 (   0.0 sec)
nearest neighbour list constructed           ...    0.0 sec
Grid point re-assignment to atoms done       ...    0.0 sec
Grid point division into batches done        ...    0.1 sec
Reduced shell lists constructed in    0.1 sec

Total number of grid points                  ...    19227
Total number of batches                      ...      301
Average number of points per batch           ...       63
Average number of grid points per atom       ...     9614
Average number of shells per batch           ...    19.21 (43.67%)
Average number of basis functions per batch  ...    49.50 (32.57%)
Average number of large shells per batch     ...    11.29 (58.74%)
Average number of large basis fcns per batch ...    27.43 (55.41%)
Maximum spatial batch extension              ...  24.49, 24.19, 17.58 au
Average spatial batch extension              ...   0.85,  0.84,  0.67 au

Final grid set up in    0.2 sec
Final integration                            ... done (   0.1 sec)
Change in XC energy                          ...    -0.002088546
Integrated number of electrons               ...    61.000022231
Previous integrated no of electrons          ...    61.000029254

----------------
TOTAL SCF ENERGY
----------------

Total Energy       :        -3837.87852787 Eh         -104433.98406 eV

Components:
Nuclear Repulsion  :          240.77562978 Eh            6551.83798 eV
Electronic Energy  :        -4078.65415765 Eh         -110985.82204 eV
One Electron Energy:        -5807.29954859 Eh         -158024.65454 eV
Two Electron Energy:         1728.64539094 Eh           47038.83250 eV

Virial components:
Potential Energy   :        -7670.46109272 Eh         -208723.85765 eV
Kinetic Energy     :         3832.58256484 Eh          104289.87358 eV
Virial Ratio       :            2.00138183


DFT components:
N(Alpha)           :       33.000010446830 electrons
N(Beta)            :       28.000011784119 electrons
N(Total)           :       61.000022230949 electrons
E(X)               :     -144.116309769985 Eh       
E(C)               :       -2.857049214261 Eh       
E(XC)              :     -146.973358984246 Eh       
DFET-embed. en.    :        0.000000000000 Eh       

---------------
SCF CONVERGENCE
---------------

  Last Energy change         ...   -3.9863e-09  Tolerance :   1.0000e-08
  Last MAX-Density change    ...    6.1614e-07  Tolerance :   1.0000e-07
  Last RMS-Density change    ...    1.0883e-08  Tolerance :   5.0000e-09
  Last DIIS Error            ...    2.5293e-07  Tolerance :   5.0000e-07

             **** THE GBW FILE WAS UPDATED (34_FeBr.gbw) ****
             **** DENSITY FILE WAS UPDATED (34_FeBr.scfp) ****
             **** ENERGY FILE WAS UPDATED (34_FeBr.en.tmp) ****
----------------------
UHF SPIN CONTAMINATION
----------------------

Warning: in a DFT calculation there is little theoretical justification to 
         calculate <S**2> as in Hartree-Fock theory. We will do it anyways
         but you should keep in mind that the values have only limited relevance

Expectation value of <S**2>     :     8.753739
Ideal value S*(S+1) for S=2.5   :     8.750000
Deviation                       :     0.003739

             **** THE GBW FILE WAS UPDATED (34_FeBr.gbw) ****
             **** DENSITY FILE WAS UPDATED (34_FeBr.scfp) ****
----------------
ORBITAL ENERGIES
----------------
                 SPIN UP ORBITALS
  NO   OCC          E(Eh)            E(eV) 
   0   1.0000    -481.751967    -13109.1375 
   1   1.0000    -255.287244     -6946.7191 
   2   1.0000     -61.966737     -1686.2007 
   3   1.0000     -55.799817     -1518.3902 
   4   1.0000     -55.799329     -1518.3769 
   5   1.0000     -55.799329     -1518.3769 
   6   1.0000     -29.707897      -808.3930 
   7   1.0000     -25.593703      -696.4401 
   8   1.0000     -25.568012      -695.7410 
   9   1.0000     -25.568012      -695.7410 
  10   1.0000      -8.495637      -231.1780 
  11   1.0000      -6.332814      -172.3246 
  12   1.0000      -6.332325      -172.3113 
  13   1.0000      -6.332325      -172.3113 
  14   1.0000      -3.437777       -93.5467 
  15   1.0000      -2.503716       -68.1296 
  16   1.0000      -2.502337       -68.0921 
  17   1.0000      -2.502337       -68.0921 
  18   1.0000      -2.502034       -68.0838 
  19   1.0000      -2.501574       -68.0713 
  20   1.0000      -2.266099       -61.6637 
  21   1.0000      -2.213498       -60.2323 
  22   1.0000      -2.213498       -60.2323 
  23   1.0000      -0.743015       -20.2185 
  24   1.0000      -0.387202       -10.5363 
  25   1.0000      -0.359105        -9.7718 
  26   1.0000      -0.359105        -9.7718 
  27   1.0000      -0.306762        -8.3474 
  28   1.0000      -0.283644        -7.7183 
  29   1.0000      -0.268472        -7.3055 
  30   1.0000      -0.268472        -7.3055 
  31   1.0000      -0.267874        -7.2892 
  32   1.0000      -0.153475        -4.1763 
  33   0.0000      -0.042745        -1.1631 
  34   0.0000      -0.042745        -1.1631 
  35   0.0000      -0.010244        -0.2788 
  36   0.0000       0.002952         0.0803 
  37   0.0000       0.018258         0.4968 
  38   0.0000       0.018258         0.4968 
  39   0.0000       0.041268         1.1230 
  40   0.0000       0.044135         1.2010 
  41   0.0000       0.044690         1.2161 
  42   0.0000       0.055828         1.5192 
  43   0.0000       0.058831         1.6009 
  44   0.0000       0.058831         1.6009 
  45   0.0000       0.081707         2.2234 
  46   0.0000       0.081707         2.2234 
  47   0.0000       0.084382         2.2962 
  48   0.0000       0.103997         2.8299 
  49   0.0000       0.149390         4.0651 
  50   0.0000       0.149390         4.0651 
  51   0.0000       0.161266         4.3883 
  52   0.0000       0.161665         4.3991 
  53   0.0000       0.174167         4.7393 
  54   0.0000       0.195967         5.3325 
  55   0.0000       0.227281         6.1846 
  56   0.0000       0.227281         6.1846 
  57   0.0000       0.248275         6.7559 
  58   0.0000       0.249746         6.7959 
  59   0.0000       0.266455         7.2506 
  60   0.0000       0.307503         8.3676 
  61   0.0000       0.307503         8.3676 
  62   0.0000       0.405874        11.0444 
  63   0.0000       0.415364        11.3026 
  64   0.0000       0.415364        11.3026 
  65   0.0000       0.452865        12.3231 
  66   0.0000       0.562538        15.3074 
  67   0.0000       0.562947        15.3186 
  68   0.0000       0.578100        15.7309 
  69   0.0000       0.584366        15.9014 
  70   0.0000       0.584366        15.9014 
  71   0.0000       0.611983        16.6529 
  72   0.0000       0.684713        18.6320 
  73   0.0000       0.684713        18.6320 
  74   0.0000       0.698913        19.0184 
  75   0.0000       0.699700        19.0398 
  76   0.0000       0.712765        19.3953 
  77   0.0000       0.712765        19.3953 
  78   0.0000       0.817279        22.2393 
  79   0.0000       0.837129        22.7794 
  80   0.0000       0.837129        22.7794 
  81   0.0000       0.892551        24.2875 
  82   0.0000       0.892551        24.2875 
  83   0.0000       0.968916        26.3655 
  84   0.0000       0.987739        26.8778 
  85   0.0000       0.995486        27.0886 
  86   0.0000       1.004055        27.3217 
  87   0.0000       1.004055        27.3217 
  88   0.0000       1.067675        29.0529 
  89   0.0000       1.086030        29.5524 
  90   0.0000       1.093282        29.7497 
  91   0.0000       1.308026        35.5932 
  92   0.0000       1.449453        39.4416 
  93   0.0000       1.449453        39.4416 
  94   0.0000       1.830400        49.8077 
  95   0.0000       1.839628        50.0588 
  96   0.0000       1.839628        50.0588 
  97   0.0000       1.926903        52.4337 
  98   0.0000       1.930486        52.5312 
  99   0.0000       1.946378        52.9637 
 100   0.0000       1.946378        52.9637 
 101   0.0000       1.959519        53.3212 
 102   0.0000       1.959519        53.3212 
 103   0.0000       1.978382        53.8345 
 104   0.0000       1.979605        53.8678 
 105   0.0000       1.981166        53.9103 
 106   0.0000       2.108613        57.3783 
 107   0.0000       2.115050        57.5534 
 108   0.0000       2.115050        57.5534 
 109   0.0000       2.566808        69.8464 
 110   0.0000       2.566808        69.8464 
 111   0.0000       2.585035        70.3424 
 112   0.0000       2.605563        70.9010 
 113   0.0000       2.620809        71.3158 
 114   0.0000       2.728858        74.2560 
 115   0.0000       2.728858        74.2560 
 116   0.0000       2.790981        75.9464 
 117   0.0000       2.910053        79.1866 
 118   0.0000       2.910053        79.1866 
 119   0.0000       2.933715        79.8304 
 120   0.0000       3.215148        87.4886 
 121   0.0000       3.215148        87.4886 
 122   0.0000       3.215694        87.5035 
 123   0.0000       3.222813        87.6972 
 124   0.0000       3.290275        89.5329 
 125   0.0000       3.299560        89.7856 
 126   0.0000       3.495735        95.1238 
 127   0.0000       3.546595        96.5078 
 128   0.0000       3.562230        96.9332 
 129   0.0000       3.562230        96.9332 
 130   0.0000       4.347728       118.3077 
 131   0.0000       4.377999       119.1314 
 132   0.0000       4.707462       128.0965 
 133   0.0000       4.707462       128.0965 
 134   0.0000       4.773382       129.8903 
 135   0.0000       5.947382       161.8365 
 136   0.0000       8.724041       237.3932 
 137   0.0000       8.741489       237.8680 
 138   0.0000       8.741489       237.8680 
 139   0.0000       8.756871       238.2866 
 140   0.0000       8.782483       238.9835 
 141   0.0000       8.782483       238.9835 
 142   0.0000       8.906710       242.3639 
 143   0.0000       9.524663       259.1792 
 144   0.0000       9.524663       259.1792 
 145   0.0000       9.543495       259.6917 
 146   0.0000       9.544449       259.7177 
 147   0.0000       9.545740       259.7528 
 148   0.0000       9.560259       260.1479 
 149   0.0000       9.694523       263.8014 
 150   0.0000       9.694523       263.8014 
 151   0.0000       9.819476       267.2015 

                 SPIN DOWN ORBITALS
  NO   OCC          E(Eh)            E(eV) 
   0   1.0000    -481.751229    -13109.1174 
   1   1.0000    -255.285439     -6946.6700 
   2   1.0000     -61.966460     -1686.1931 
   3   1.0000     -55.799159     -1518.3723 
   4   1.0000     -55.798689     -1518.3595 
   5   1.0000     -55.798689     -1518.3595 
   6   1.0000     -29.648509      -806.7769 
   7   1.0000     -25.538439      -694.9363 
   8   1.0000     -25.523362      -694.5260 
   9   1.0000     -25.523362      -694.5260 
  10   1.0000      -8.494583      -231.1494 
  11   1.0000      -6.331726      -172.2950 
  12   1.0000      -6.331072      -172.2772 
  13   1.0000      -6.331072      -172.2772 
  14   1.0000      -3.290139       -89.5292 
  15   1.0000      -2.502199       -68.0883 
  16   1.0000      -2.500848       -68.0515 
  17   1.0000      -2.500848       -68.0515 
  18   1.0000      -2.500347       -68.0379 
  19   1.0000      -2.499879       -68.0252 
  20   1.0000      -2.092830       -56.9488 
  21   1.0000      -2.078677       -56.5637 
  22   1.0000      -2.078677       -56.5637 
  23   1.0000      -0.730866       -19.8879 
  24   1.0000      -0.348029        -9.4703 
  25   1.0000      -0.309595        -8.4245 
  26   1.0000      -0.309595        -8.4245 
  27   1.0000      -0.205253        -5.5852 
  28   0.0000      -0.175184        -4.7670 
  29   0.0000      -0.156874        -4.2687 
  30   0.0000      -0.156874        -4.2687 
  31   0.0000      -0.128397        -3.4939 
  32   0.0000      -0.092393        -2.5141 
  33   0.0000      -0.008679        -0.2362 
  34   0.0000      -0.008679        -0.2362 
  35   0.0000      -0.000395        -0.0107 
  36   0.0000       0.026340         0.7167 
  37   0.0000       0.032803         0.8926 
  38   0.0000       0.032803         0.8926 
  39   0.0000       0.057345         1.5604 
  40   0.0000       0.061513         1.6738 
  41   0.0000       0.066235         1.8024 
  42   0.0000       0.068827         1.8729 
  43   0.0000       0.070991         1.9318 
  44   0.0000       0.070991         1.9318 
  45   0.0000       0.103077         2.8049 
  46   0.0000       0.104290         2.8379 
  47   0.0000       0.104290         2.8379 
  48   0.0000       0.133801         3.6409 
  49   0.0000       0.172165         4.6848 
  50   0.0000       0.174285         4.7425 
  51   0.0000       0.177623         4.8334 
  52   0.0000       0.177623         4.8334 
  53   0.0000       0.190420         5.1816 
  54   0.0000       0.223851         6.0913 
  55   0.0000       0.254942         6.9373 
  56   0.0000       0.254942         6.9373 
  57   0.0000       0.273248         7.4355 
  58   0.0000       0.284102         7.7308 
  59   0.0000       0.285289         7.7631 
  60   0.0000       0.322394         8.7728 
  61   0.0000       0.322394         8.7728 
  62   0.0000       0.423909        11.5351 
  63   0.0000       0.423909        11.5351 
  64   0.0000       0.424858        11.5610 
  65   0.0000       0.484734        13.1903 
  66   0.0000       0.571265        15.5449 
  67   0.0000       0.572378        15.5752 
  68   0.0000       0.594305        16.1718 
  69   0.0000       0.597318        16.2539 
  70   0.0000       0.597318        16.2539 
  71   0.0000       0.637623        17.3506 
  72   0.0000       0.703164        19.1341 
  73   0.0000       0.703164        19.1341 
  74   0.0000       0.718270        19.5451 
  75   0.0000       0.721901        19.6439 
  76   0.0000       0.760388        20.6912 
  77   0.0000       0.760388        20.6912 
  78   0.0000       0.858818        23.3696 
  79   0.0000       0.876726        23.8569 
  80   0.0000       0.876726        23.8569 
  81   0.0000       0.928757        25.2728 
  82   0.0000       0.928757        25.2728 
  83   0.0000       1.006900        27.3992 
  84   0.0000       1.043945        28.4072 
  85   0.0000       1.052355        28.6360 
  86   0.0000       1.056822        28.7576 
  87   0.0000       1.056822        28.7576 
  88   0.0000       1.100927        29.9578 
  89   0.0000       1.127571        30.6828 
  90   0.0000       1.158887        31.5349 
  91   0.0000       1.342552        36.5327 
  92   0.0000       1.492342        40.6087 
  93   0.0000       1.492342        40.6087 
  94   0.0000       1.847089        50.2618 
  95   0.0000       1.851652        50.3860 
  96   0.0000       1.851652        50.3860 
  97   0.0000       1.936710        52.7006 
  98   0.0000       1.940429        52.8018 
  99   0.0000       1.958910        53.3047 
 100   0.0000       1.958910        53.3047 
 101   0.0000       1.971502        53.6473 
 102   0.0000       1.971502        53.6473 
 103   0.0000       1.990565        54.1660 
 104   0.0000       1.992297        54.2132 
 105   0.0000       1.998724        54.3880 
 106   0.0000       2.131847        58.0105 
 107   0.0000       2.134175        58.0738 
 108   0.0000       2.134175        58.0738 
 109   0.0000       2.650611        72.1268 
 110   0.0000       2.650611        72.1268 
 111   0.0000       2.654555        72.2341 
 112   0.0000       2.689959        73.1975 
 113   0.0000       2.721732        74.0621 
 114   0.0000       2.816892        76.6515 
 115   0.0000       2.816892        76.6515 
 116   0.0000       2.891949        78.6939 
 117   0.0000       3.004907        81.7677 
 118   0.0000       3.004907        81.7677 
 119   0.0000       3.016767        82.0904 
 120   0.0000       3.288436        89.4829 
 121   0.0000       3.294850        89.6574 
 122   0.0000       3.296313        89.6972 
 123   0.0000       3.296313        89.6972 
 124   0.0000       3.363275        91.5194 
 125   0.0000       3.380906        91.9991 
 126   0.0000       3.569670        97.1357 
 127   0.0000       3.617867        98.4472 
 128   0.0000       3.639736        99.0423 
 129   0.0000       3.639736        99.0423 
 130   0.0000       4.450263       121.0978 
 131   0.0000       4.492119       122.2368 
 132   0.0000       4.797791       130.5545 
 133   0.0000       4.824861       131.2911 
 134   0.0000       4.824861       131.2911 
 135   0.0000       6.052376       164.6935 
 136   0.0000       8.903783       242.2842 
 137   0.0000       8.903783       242.2842 
 138   0.0000       8.910825       242.4759 
 139   0.0000       8.945439       243.4178 
 140   0.0000       8.970311       244.0946 
 141   0.0000       8.970311       244.0946 
 142   0.0000       9.089654       247.3421 
 143   0.0000       9.655611       262.7425 
 144   0.0000       9.655611       262.7425 
 145   0.0000       9.660675       262.8803 
 146   0.0000       9.662240       262.9229 
 147   0.0000       9.679684       263.3976 
 148   0.0000       9.695034       263.8153 
 149   0.0000       9.828907       267.4582 
 150   0.0000       9.828907       267.4582 
 151   0.0000       9.954349       270.8716 

                    ********************************
                    * MULLIKEN POPULATION ANALYSIS *
                    ********************************

--------------------------------------------
MULLIKEN ATOMIC CHARGES AND SPIN POPULATIONS
--------------------------------------------
   0 Fe:    0.031152    4.575336
   1 Br:   -0.031152    0.424664
Sum of atomic charges         :   -0.0000000
Sum of atomic spin populations:    5.0000000

-----------------------------------------------------
MULLIKEN REDUCED ORBITAL CHARGES AND SPIN POPULATIONS
-----------------------------------------------------
CHARGE
  0 Fes       :     7.013202  s :     7.013202
      pz      :     4.413545  p :    12.532948
      px      :     4.059701
      py      :     4.059701
      dz2     :     1.138382  d :     6.397143
      dxz     :     1.133514
      dyz     :     1.133514
      dx2y2   :     0.998177
      dxy     :     1.993557
      f0      :     0.006368  f :     0.024207
      f+1     :     0.008767
      f-1     :     0.008767
      f+2     :     0.000025
      f-2     :     0.000177
      f+3     :     0.000052
      f-3     :     0.000052
      g0      :     0.000482  g :     0.001347
      g+1     :     0.000405
      g-1     :     0.000405
      g+2     :     0.000009
      g-2     :     0.000020
      g+3     :     0.000003
      g-3     :     0.000003
      g+4     :     0.000021
      g-4     :     0.000000
  1 Brs       :     7.975190  s :     7.975190
      pz      :     5.441947  p :    17.006994
      px      :     5.782523
      py      :     5.782523
      dz2     :     2.009984  d :    10.042529
      dxz     :     2.013622
      dyz     :     2.013622
      dx2y2   :     2.001097
      dxy     :     2.004204
      f0      :     0.000879  f :     0.006439
      f+1     :     0.001413
      f-1     :     0.001413
      f+2     :     0.000693
      f-2     :     0.002042
      f+3     :     0.000000
      f-3     :     0.000000

SPIN
  0 Fes       :     0.738643  s :     0.738643
      pz      :     0.295062  p :     0.320719
      px      :     0.012828
      py      :     0.012828
      dz2     :     0.811054  d :     3.518701
      dxz     :     0.853921
      dyz     :     0.853921
      dx2y2   :     0.998175
      dxy     :     0.001629
      f0      :    -0.000367  f :    -0.002516
      f+1     :    -0.000985
      f-1     :    -0.000985
      f+2     :     0.000016
      f-2     :    -0.000132
      f+3     :    -0.000032
      f-3     :    -0.000032
      g0      :    -0.000068  g :    -0.000211
      g+1     :    -0.000083
      g-1     :    -0.000083
      g+2     :     0.000008
      g-2     :     0.000018
      g+3     :    -0.000000
      g-3     :    -0.000000
      g+4     :    -0.000002
      g-4     :     0.000000
  1 Brs       :     0.033659  s :     0.033659
      pz      :     0.108520  p :     0.372602
      px      :     0.132041
      py      :     0.132041
      dz2     :     0.012254  d :     0.016463
      dxz     :     0.002137
      dyz     :     0.002137
      dx2y2   :     0.001109
      dxy     :    -0.001174
      f0      :     0.001244  f :     0.001940
      f+1     :     0.000172
      f-1     :     0.000172
      f+2     :     0.000692
      f-2     :    -0.000341
      f+3     :    -0.000000
      f-3     :    -0.000000


                     *******************************
                     * LOEWDIN POPULATION ANALYSIS *
                     *******************************

-------------------------------------------
LOEWDIN ATOMIC CHARGES AND SPIN POPULATIONS
-------------------------------------------
   0 Fe:   -0.240541    4.479142
   1 Br:    0.240541    0.520858

----------------------------------------------------
LOEWDIN REDUCED ORBITAL CHARGES AND SPIN POPULATIONS
----------------------------------------------------
CHARGE
  0 Fes       :     6.651362  s :     6.651362
      pz      :     4.584661  p :    12.759885
      px      :     4.087612
      py      :     4.087612
      dz2     :     1.290336  d :     6.652827
      dxz     :     1.197225
      dyz     :     1.197225
      dx2y2   :     0.991133
      dxy     :     1.976908
      f0      :     0.059143  f :     0.169595
      f+1     :     0.055065
      f-1     :     0.055065
      f+2     :     0.000095
      f-2     :     0.000124
      f+3     :     0.000052
      f-3     :     0.000052
      g0      :     0.002812  g :     0.006872
      g+1     :     0.002008
      g-1     :     0.002008
      g+2     :     0.000003
      g-2     :     0.000014
      g+3     :     0.000003
      g-3     :     0.000003
      g+4     :     0.000021
      g-4     :     0.000000
  1 Brs       :     7.524200  s :     7.524200
      pz      :     5.641813  p :    16.785279
      px      :     5.571733
      py      :     5.571733
      dz2     :     2.161647  d :    10.270623
      dxz     :     2.047808
      dyz     :     2.047808
      dx2y2   :     2.003322
      dxy     :     2.010040
      f0      :     0.084004  f :     0.179356
      f+1     :     0.038495
      f-1     :     0.038495
      f+2     :     0.005447
      f-2     :     0.012914
      f+3     :     0.000000
      f-3     :     0.000000

SPIN
  0 Fes       :     0.627057  s :     0.627057
      pz      :     0.345359  p :     0.413357
      px      :     0.033999
      py      :     0.033999
      dz2     :     0.792489  d :     3.425630
      dxz     :     0.819907
      dyz     :     0.819907
      dx2y2   :     0.991123
      dxy     :     0.002204
      f0      :     0.001631  f :     0.012715
      f+1     :     0.005532
      f-1     :     0.005532
      f+2     :     0.000051
      f-2     :     0.000032
      f+3     :    -0.000032
      f-3     :    -0.000032
      g0      :     0.000121  g :     0.000383
      g+1     :     0.000127
      g-1     :     0.000127
      g+2     :     0.000003
      g-2     :     0.000006
      g+3     :    -0.000000
      g-3     :    -0.000000
      g+4     :    -0.000002
      g-4     :     0.000000
  1 Brs       :     0.045518  s :     0.045518
      pz      :     0.143798  p :     0.345314
      px      :     0.100758
      py      :     0.100758
      dz2     :     0.038236  d :     0.086714
      dxz     :     0.023327
      dyz     :     0.023327
      dx2y2   :     0.003377
      dxy     :    -0.001554
      f0      :     0.005792  f :     0.043312
      f+1     :     0.016381
      f-1     :     0.016381
      f+2     :     0.005447
      f-2     :    -0.000688
      f+3     :    -0.000000
      f-3     :    -0.000000


                      *****************************
                      * MAYER POPULATION ANALYSIS *
                      *****************************

  NA   - Mulliken gross atomic population
  ZA   - Total nuclear charge
  QA   - Mulliken gross atomic charge
  VA   - Mayer's total valence
  BVA  - Mayer's bonded valence
  FA   - Mayer's free valence

  ATOM       NA         ZA         QA         VA         BVA        FA
  0 Fe    25.9688    26.0000     0.0312     5.7530     1.6150     4.1380
  1 Br    35.0312    35.0000    -0.0312     1.6741     1.6150     0.0592

  Mayer bond orders larger than 0.100000
B(  0-Fe,  1-Br) :   1.6150 

-------
TIMINGS
-------

Total SCF time: 0 days 0 hours 0 min 3 sec 

Total time                  ....       3.215 sec
Sum of individual times     ....       3.065 sec  ( 95.3%)

Fock matrix formation       ....       2.623 sec  ( 81.6%)
  Split-RI-J                ....       1.983 sec  ( 75.6% of F)
  XC integration            ....       0.585 sec  ( 22.3% of F)
    Basis function eval.    ....       0.050 sec  (  8.5% of XC)
    Density eval.           ....       0.052 sec  (  8.9% of XC)
    XC-Functional eval.     ....       0.011 sec  (  1.8% of XC)
    XC-Potential eval.      ....       0.154 sec  ( 26.3% of XC)
Diagonalization             ....       0.078 sec  (  2.4%)
Density matrix formation    ....       0.012 sec  (  0.4%)
Population analysis         ....       0.007 sec  (  0.2%)
Initial guess               ....       0.130 sec  (  4.0%)
Orbital Transformation      ....       0.000 sec  (  0.0%)
Orbital Orthonormalization  ....       0.000 sec  (  0.0%)
DIIS solution               ....       0.030 sec  (  0.9%)
Grid generation             ....       0.185 sec  (  5.8%)


-------------------------------------------------------------------------------
                          DFT DISPERSION CORRECTION                            
                                                                               
                              DFTD3 V3.1  Rev 1                                
                          USING Becke-Johnson damping                          
-------------------------------------------------------------------------------
The TPSS functional is recognized
Active option DFTDOPT                   ...         4   

molecular C6(AA) [au] = 771.810966 


            DFT-D V3
 parameters
 s6 scaling factor         :     1.0000 
 a1 scaling factor         :     0.4535 
 s8 scaling factor         :     1.9435 
 a2 scaling factor         :     4.4752 
 ad hoc parameters k1-k3   :    16.0000     1.3333    -4.0000 

 Edisp/kcal,au: -1.005221583419  -0.001601922390 
 E6   /kcal   :  -0.323680173 
 E8   /kcal   :  -0.681541411 
 % E8         :  67.800117096 

-------------------------   ----------------
Dispersion correction           -0.001601922
-------------------------   ----------------


-------------------------   --------------------
FINAL SINGLE POINT ENERGY     -3837.880129795118
-------------------------   --------------------



           ************************************************************
           *        Program running with 24 parallel MPI-processes    *
           *              working on a common directory               *
           ************************************************************
------------------------------------------------------------------------------
                         ORCA SCF GRADIENT CALCULATION
------------------------------------------------------------------------------

Gradient of the Kohn-Sham DFT energy:
Kohn-Sham wavefunction type      ... UKS
Hartree-Fock exchange scaling    ...    0.000
Number of operators              ...    2
Number of atoms                  ...    2
Basis set dimensions             ...  152
Integral neglect threshold       ... 2.5e-11
Integral primitive cutoff        ... 2.5e-12

Nuclear repulsion gradient       ... done
One Electron Gradient            ... done
Pre-screening matrix             ... done
RI-J gradient                    ... done
Exchange-correlation gradient    ... done
Dispersion correction            ... done

------------------
CARTESIAN GRADIENT
------------------

   1   Fe  :    0.000000010   -0.000000009    0.131383415
   2   Br  :    0.000000002    0.000000003   -0.129558546

Difference to translation invariance:
           :    0.0000000125   -0.0000000062    0.0018248683

Norm of the cartesian gradient     ...    0.1845183421
RMS gradient                       ...    0.0753292977
MAX gradient                       ...    0.1313834147

-------
TIMINGS
-------

Total SCF gradient time            ...        4.615 sec

One electron gradient       ....       0.058 sec  (  1.2%)
Prescreening matrices       ....       3.617 sec  ( 78.4%)
RI-J Coulomb gradient       ....       0.294 sec  (  6.4%)
XC gradient                 ....       0.079 sec  (  1.7%)
------------------------------------------------------------------------------
                         ORCA GEOMETRY RELAXATION STEP
------------------------------------------------------------------------------

Reading the OPT-File                    .... done
Getting information on internals        .... done
Copying old internal coords+grads       .... done
Making the new internal coordinates     .... (new redundants).... done
Validating the new internal coordinates .... (new redundants).... done
Calculating the B-matrix                .... done
Calculating the G,G- and P matrices     .... done
Transforming gradient to internals      .... done
Projecting the internal gradient        .... done
Number of atoms                         ....   2
Number of internal coordinates          ....   1
Current Energy                          .... -3837.880129795 Eh
Current gradient norm                   ....     0.184518342 Eh/bohr
Maximum allowed component of the step   ....  0.300
Current trust radius                    ....  0.300
Evaluating the initial hessian          ....  (Almloef) done
Projecting the Hessian                  .... done
Forming the augmented Hessian           .... done
Diagonalizing the augmented Hessian     .... done
Last element of RFO vector              ....  0.998348956
Lowest eigenvalues of augmented Hessian:
 -0.007506658
Length of the computed step             ....  0.057535075
The final length of the internal step   ....  0.057535075
Converting the step to cartesian space:
 Initial RMS(Int)=    0.0575350749
Transforming coordinates:
 Iter   0:  RMS(Cart)=    0.0166089455 RMS(Int)=    0.0575350749
 Iter   1:  RMS(Cart)=    0.0000000000 RMS(Int)=    0.0000000000
done
Storing new coordinates                 .... done

                                .--------------------.
          ----------------------|Geometry convergence|-------------------------
          Item                value                   Tolerance       Converged
          ---------------------------------------------------------------------
          RMS gradient        0.1304709805            0.0001000000      NO
          MAX gradient        0.1304709805            0.0003000000      NO
          RMS step            0.0575350749            0.0020000000      NO
          MAX step            0.0575350749            0.0040000000      NO
          ........................................................
          Max(Bonds)      0.0304      Max(Angles)    0.00
          Max(Dihed)        0.00      Max(Improp)    0.00
          ---------------------------------------------------------------------

The optimization has not yet converged - more geometry cycles are needed


    ---------------------------------------------------------------------------
                         Redundant Internal Coordinates
                            (Angstroem and degrees)

        Definition                    Value    dE/dq     Step     New-Value
    ----------------------------------------------------------------------------
     1. B(Br  1,Fe  0)                2.0000 -0.130471  0.0304    2.0304   
    ----------------------------------------------------------------------------

         *************************************************************
         *                GEOMETRY OPTIMIZATION CYCLE   2            *
         *************************************************************
---------------------------------
CARTESIAN COORDINATES (ANGSTROEM)
---------------------------------
  Fe     0.000000    0.000000   -0.015223
  Br     0.000000    0.000000    2.015223

----------------------------
CARTESIAN COORDINATES (A.U.)
----------------------------
  NO LB      ZA    FRAG     MASS         X           Y           Z
   0 Fe   26.0000    0    55.850    0.000000    0.000000   -0.028768
   1 Br   35.0000    0    79.900    0.000000    0.000000    3.808220

--------------------------------
INTERNAL COORDINATES (ANGSTROEM)
--------------------------------
 Fe     0   0   0     0.000000000000     0.00000000     0.00000000
 Br     1   0   0     2.030446250330     0.00000000     0.00000000

---------------------------
INTERNAL COORDINATES (A.U.)
---------------------------
 Fe     0   0   0     0.000000000000     0.00000000     0.00000000
 Br     1   0   0     3.836987342771     0.00000000     0.00000000



           ************************************************************
           *        Program running with 24 parallel MPI-processes    *
           *              working on a common directory               *
           ************************************************************
 One Electron integrals                  ... done
 Pre-screening matrix                    ... done


           ************************************************************
           *        Program running with 24 parallel MPI-processes    *
           *              working on a common directory               *
           ************************************************************

Diagonalization of the overlap matrix:
Smallest eigenvalue                        ... 7.673e-05
Time for diagonalization                   ...    0.004 sec
Threshold for overlap eigenvalues          ... 1.000e-08
Number of eigenvalues below threshold      ... 0
Time for construction of square roots      ...    0.003 sec
Total time needed                          ...    0.007 sec

-------------------
DFT GRID GENERATION
-------------------

General Integration Accuracy     IntAcc      ...  4.340
Radial Grid Type                 RadialGrid  ... Gauss-Chebyshev
Angular Grid (max. acc.)         AngularGrid ... Lebedev-110
Angular grid pruning method      GridPruning ... 3 (G Style)
Weight generation scheme         WeightScheme... Becke
Basis function cutoff            BFCut       ...    1.0000e-11
Integration weight cutoff        WCut        ...    1.0000e-14
Grids for H and He will be reduced by one unit

# of grid points (after initial pruning)     ...   5802 (   0.0 sec)
# of grid points (after weights+screening)   ...   5776 (   0.0 sec)
nearest neighbour list constructed           ...    0.0 sec
Grid point re-assignment to atoms done       ...    0.0 sec
Grid point division into batches done        ...    0.0 sec
Reduced shell lists constructed in    0.0 sec

Total number of grid points                  ...     5776
Total number of batches                      ...       91
Average number of points per batch           ...       63
Average number of grid points per atom       ...     2888
Average number of shells per batch           ...    24.80 (56.36%)
Average number of basis functions per batch  ...    74.40 (48.95%)
Average number of large shells per batch     ...    18.00 (72.58%)
Average number of large basis fcns per batch ...    54.80 (73.66%)
Maximum spatial batch extension              ...  18.98, 28.73, 16.15 au
Average spatial batch extension              ...   0.79,  1.06,  0.71 au

Time for grid setup =    0.032 sec

--------------
SCF ITERATIONS
--------------
ITER       Energy         Delta-E        Max-DP      RMS-DP      [F,P]     Damp
               ***  Starting incremental Fock matrix formation  ***
  0  -3837.8832500806   0.000000000000 0.00218568  0.00005467  0.0153333 0.7000
  1  -3837.8832998759  -0.000049795232 0.00186931  0.00004527  0.0107522 0.7000
                               ***Turning on DIIS***
  2  -3837.8833359615  -0.000036085623 0.00499422  0.00011231  0.0075270 0.0000
  3  -3837.8834175906  -0.000081629139 0.00142977  0.00002428  0.0011843 0.0000
  4  -3837.8834196522  -0.000002061589 0.00101203  0.00001518  0.0009406 0.0000
  5  -3837.8834185840   0.000001068226 0.00037369  0.00000677  0.0019218 0.0000
  6  -3837.8834212177  -0.000002633716 0.00037204  0.00000528  0.0007091 0.0000
  7  -3837.8834221727  -0.000000954954 0.00013735  0.00000192  0.0002427 0.0000
  8  -3837.8834221293   0.000000043319 0.00003727  0.00000056  0.0000553 0.0000
  9  -3837.8834220745   0.000000054814 0.00000714  0.00000013  0.0000225 0.0000
 10  -3837.8834221316  -0.000000057019 0.00000683  0.00000009  0.0000028 0.0000
 11  -3837.8834220958   0.000000035770 0.00000159  0.00000002  0.0000012 0.0000
                            ***DIIS convergence achieved***

               *****************************************************
               *                     SUCCESS                       *
               *           SCF CONVERGED AFTER  12 CYCLES          *
               *****************************************************

Setting up the final grid:

General Integration Accuracy     IntAcc      ...  4.670
Radial Grid Type                 RadialGrid  ... Gauss-Chebyshev
Angular Grid (max. acc.)         AngularGrid ... Lebedev-302
Angular grid pruning method      GridPruning ... 3 (G Style)
Weight generation scheme         WeightScheme... Becke
Basis function cutoff            BFCut       ...    1.0000e-11
Integration weight cutoff        WCut        ...    1.0000e-14
Grids for H and He will be reduced by one unit

# of grid points (after initial pruning)     ...  19256 (   0.0 sec)
# of grid points (after weights+screening)   ...  19227 (   0.0 sec)
nearest neighbour list constructed           ...    0.0 sec
Grid point re-assignment to atoms done       ...    0.0 sec
Grid point division into batches done        ...    0.1 sec
Reduced shell lists constructed in    0.1 sec

Total number of grid points                  ...    19227
Total number of batches                      ...      302
Average number of points per batch           ...       63
Average number of grid points per atom       ...     9614
Average number of shells per batch           ...    19.21 (43.67%)
Average number of basis functions per batch  ...    49.50 (32.57%)
Average number of large shells per batch     ...    11.29 (58.74%)
Average number of large basis fcns per batch ...    27.43 (55.41%)
Maximum spatial batch extension              ...  24.49, 24.19, 17.58 au
Average spatial batch extension              ...   0.85,  0.84,  0.67 au

Final grid set up in    0.2 sec
Final integration                            ... done (   0.1 sec)
Change in XC energy                          ...    -0.001972307
Integrated number of electrons               ...    61.000018409
Previous integrated no of electrons          ...    61.000037408
Total Energy       :        -3837.88539436 Eh         -104434.17091 eV
  Last Energy change         ...    4.5885e-08  Tolerance :   1.0000e-08
  Last MAX-Density change    ...    1.4629e-06  Tolerance :   1.0000e-07
             **** THE GBW FILE WAS UPDATED (34_FeBr.gbw) ****
             **** DENSITY FILE WAS UPDATED (34_FeBr.scfp) ****
             **** ENERGY FILE WAS UPDATED (34_FeBr.en.tmp) ****
----------------------
UHF SPIN CONTAMINATION
----------------------

Warning: in a DFT calculation there is little theoretical justification to 
         calculate <S**2> as in Hartree-Fock theory. We will do it anyways
         but you should keep in mind that the values have only limited relevance

Expectation value of <S**2>     :     8.753694
Ideal value S*(S+1) for S=2.5   :     8.750000
Deviation                       :     0.003694

             **** THE GBW FILE WAS UPDATED (34_FeBr.gbw) ****
             **** DENSITY FILE WAS UPDATED (34_FeBr.scfp) ****
Total SCF time: 0 days 0 hours 0 min 3 sec 


-------------------------------------------------------------------------------
                          DFT DISPERSION CORRECTION                            
                                                                               
                              DFTD3 V3.1  Rev 1                                
                          USING Becke-Johnson damping                          
-------------------------------------------------------------------------------
-------------------------   ----------------
Dispersion correction           -0.001601510
-------------------------   ----------------


-------------------------   --------------------
FINAL SINGLE POINT ENERGY     -3837.886995867535
-------------------------   --------------------



           ************************************************************
           *        Program running with 24 parallel MPI-processes    *
           *              working on a common directory               *
           ************************************************************
------------------------------------------------------------------------------
                         ORCA SCF GRADIENT CALCULATION
------------------------------------------------------------------------------

Gradient of the Kohn-Sham DFT energy:
Kohn-Sham wavefunction type      ... UKS
Hartree-Fock exchange scaling    ...    0.000
Number of operators              ...    2
Number of atoms                  ...    2
Basis set dimensions             ...  152
Integral neglect threshold       ... 2.5e-11
Integral primitive cutoff        ... 2.5e-12

Nuclear repulsion gradient       ... done
One Electron Gradient            ... done
Pre-screening matrix             ... done
RI-J gradient                    ... done
Exchange-correlation gradient    ... done
Dispersion correction            ... done

------------------
CARTESIAN GRADIENT
------------------

   1   Fe  :   -0.000000005   -0.000000005    0.111034010
   2   Br  :    0.000000009    0.000000004   -0.109413424

Difference to translation invariance:
           :    0.0000000041   -0.0000000008    0.0016205859

Norm of the cartesian gradient     ...    0.1558840874
RMS gradient                       ...    0.0636394122
MAX gradient                       ...    0.1110340099

-------
TIMINGS
-------

Total SCF gradient time            ...        4.608 sec

One electron gradient       ....       0.058 sec  (  1.3%)
Prescreening matrices       ....       3.632 sec  ( 78.8%)
RI-J Coulomb gradient       ....       0.305 sec  (  6.6%)
XC gradient                 ....       0.085 sec  (  1.8%)
------------------------------------------------------------------------------
                         ORCA GEOMETRY RELAXATION STEP
------------------------------------------------------------------------------

Reading the OPT-File                    .... done
Getting information on internals        .... done
Copying old internal coords+grads       .... done
Making the new internal coordinates     .... (new redundants).... done
Validating the new internal coordinates .... (new redundants).... done
Calculating the B-matrix                .... done
Calculating the G,G- and P matrices     .... done
Transforming gradient to internals      .... done
Projecting the internal gradient        .... done
Number of atoms                         ....   2
Number of internal coordinates          ....   1
Current Energy                          .... -3837.886995868 Eh
Current gradient norm                   ....     0.155884087 Eh/bohr
Maximum allowed component of the step   ....  0.300
Current trust radius                    ....  0.300
Updating the Hessian (BFGS)             .... done
Forming the augmented Hessian           .... done
Diagonalizing the augmented Hessian     .... done
Last element of RFO vector              ....  0.961107131
Lowest eigenvalues of augmented Hessian:
 -0.031672978
Length of the computed step             ....  0.287351752
The final length of the internal step   ....  0.287351752
Converting the step to cartesian space:
 Initial RMS(Int)=    0.2873517523
Transforming coordinates:
 Iter   0:  RMS(Cart)=    0.0577350269 RMS(Int)=    0.2000000000
 Iter   1:  RMS(Cart)=    0.0252162788 RMS(Int)=    0.0873517523
 Iter   2:  RMS(Cart)=    0.0000000000 RMS(Int)=    0.0000000000
done
Storing new coordinates                 .... done

                                .--------------------.
          ----------------------|Geometry convergence|-------------------------
          Item                value                   Tolerance       Converged
          ---------------------------------------------------------------------
          Energy change      -0.0068660724            0.0000050000      NO
          RMS gradient        0.1102237170            0.0001000000      NO
          MAX gradient        0.1102237170            0.0003000000      NO
          RMS step            0.2873517523            0.0020000000      NO
          MAX step            0.2873517523            0.0040000000      NO
          ........................................................
          Max(Bonds)      0.1521      Max(Angles)    0.00
          Max(Dihed)        0.00      Max(Improp)    0.00
          ---------------------------------------------------------------------

The optimization has not yet converged - more geometry cycles are needed


    ---------------------------------------------------------------------------
                         Redundant Internal Coordinates
                            (Angstroem and degrees)

        Definition                    Value    dE/dq     Step     New-Value
    ----------------------------------------------------------------------------
     1. B(Br  1,Fe  0)                2.0304 -0.110224  0.1521    2.1825   
    ----------------------------------------------------------------------------

         *************************************************************
         *                GEOMETRY OPTIMIZATION CYCLE   3            *
         *************************************************************
---------------------------------
CARTESIAN COORDINATES (ANGSTROEM)
---------------------------------
  Fe     0.000000    0.000000   -0.091253
  Br     0.000000    0.000000    2.091253

----------------------------
CARTESIAN COORDINATES (A.U.)
----------------------------
  NO LB      ZA    FRAG     MASS         X           Y           Z
   0 Fe   26.0000    0    55.850    0.000000    0.000000   -0.172443
   1 Br   35.0000    0    79.900    0.000000    0.000000    3.951896

--------------------------------
INTERNAL COORDINATES (ANGSTROEM)
--------------------------------
 Fe     0   0   0     0.000000000000     0.00000000     0.00000000
 Br     1   0   0     2.182506248402     0.00000000     0.00000000

---------------------------
INTERNAL COORDINATES (A.U.)
---------------------------
 Fe     0   0   0     0.000000000000     0.00000000     0.00000000
 Br     1   0   0     4.124339095051     0.00000000     0.00000000



           ************************************************************
           *        Program running with 24 parallel MPI-processes    *
           *              working on a common directory               *
           ************************************************************
 One Electron integrals                  ... done
 Pre-screening matrix                    ... done


           ************************************************************
           *        Program running with 24 parallel MPI-processes    *
           *              working on a common directory               *
           ************************************************************

Diagonalization of the overlap matrix:
Smallest eigenvalue                        ... 9.460e-05
Time for diagonalization                   ...    0.004 sec
Threshold for overlap eigenvalues          ... 1.000e-08
Number of eigenvalues below threshold      ... 0
Time for construction of square roots      ...    0.003 sec
Total time needed                          ...    0.007 sec

-------------------
DFT GRID GENERATION
-------------------

General Integration Accuracy     IntAcc      ...  4.340
Radial Grid Type                 RadialGrid  ... Gauss-Chebyshev
Angular Grid (max. acc.)         AngularGrid ... Lebedev-110
Angular grid pruning method      GridPruning ... 3 (G Style)
Weight generation scheme         WeightScheme... Becke
Basis function cutoff            BFCut       ...    1.0000e-11
Integration weight cutoff        WCut        ...    1.0000e-14
Grids for H and He will be reduced by one unit

# of grid points (after initial pruning)     ...   5802 (   0.0 sec)
# of grid points (after weights+screening)   ...   5777 (   0.0 sec)
nearest neighbour list constructed           ...    0.0 sec
Grid point re-assignment to atoms done       ...    0.0 sec
Grid point division into batches done        ...    0.0 sec
Reduced shell lists constructed in    0.0 sec

Total number of grid points                  ...     5777
Total number of batches                      ...       92
Average number of points per batch           ...       62
Average number of grid points per atom       ...     2888
Average number of shells per batch           ...    24.80 (56.36%)
Average number of basis functions per batch  ...    74.40 (48.95%)
Average number of large shells per batch     ...    17.60 (70.97%)
Average number of large basis fcns per batch ...    52.80 (70.97%)
Maximum spatial batch extension              ...  18.98, 28.73, 16.15 au
Average spatial batch extension              ...   0.76,  1.05,  0.70 au

Time for grid setup =    0.031 sec

--------------
SCF ITERATIONS
--------------
ITER       Energy         Delta-E        Max-DP      RMS-DP      [F,P]     Damp
               ***  Starting incremental Fock matrix formation  ***
  0  -3837.8999647580   0.000000000000 0.00898147  0.00023011  0.0774242 0.7000
  1  -3837.9009086608  -0.000943902788 0.00796329  0.00019607  0.0542636 0.7000
                               ***Turning on DIIS***
  2  -3837.9016011393  -0.000692478449 0.02161760  0.00049428  0.0379656 0.0000
  3  -3837.9031655337  -0.001564394442 0.00701197  0.00009857  0.0050885 0.0000
  4  -3837.9032017656  -0.000036231917 0.00161567  0.00003672  0.0043000 0.0000
  5  -3837.9032364412  -0.000034675557 0.00172720  0.00002998  0.0034093 0.0000
  6  -3837.9032455258  -0.000009084605 0.00078769  0.00001403  0.0006814 0.0000
  7  -3837.9032470389  -0.000001513138 0.00023988  0.00000352  0.0003133 0.0000
  8  -3837.9032474444  -0.000000405445 0.00010723  0.00000108  0.0000850 0.0000
  9  -3837.9032472959   0.000000148444 0.00002651  0.00000032  0.0000319 0.0000
 10  -3837.9032473113  -0.000000015331 0.00000487  0.00000008  0.0000079 0.0000
 11  -3837.9032472961   0.000000015193 0.00000450  0.00000005  0.0000048 0.0000
                            ***DIIS convergence achieved***

               *****************************************************
               *                     SUCCESS                       *
               *           SCF CONVERGED AFTER  12 CYCLES          *
               *****************************************************

Setting up the final grid:

General Integration Accuracy     IntAcc      ...  4.670
Radial Grid Type                 RadialGrid  ... Gauss-Chebyshev
Angular Grid (max. acc.)         AngularGrid ... Lebedev-302
Angular grid pruning method      GridPruning ... 3 (G Style)
Weight generation scheme         WeightScheme... Becke
Basis function cutoff            BFCut       ...    1.0000e-11
Integration weight cutoff        WCut        ...    1.0000e-14
Grids for H and He will be reduced by one unit

# of grid points (after initial pruning)     ...  19256 (   0.0 sec)
# of grid points (after weights+screening)   ...  19228 (   0.0 sec)
nearest neighbour list constructed           ...    0.0 sec
Grid point re-assignment to atoms done       ...    0.0 sec
Grid point division into batches done        ...    0.1 sec
Reduced shell lists constructed in    0.1 sec

Total number of grid points                  ...    19228
Total number of batches                      ...      302
Average number of points per batch           ...       63
Average number of grid points per atom       ...     9614
Average number of shells per batch           ...    18.43 (41.88%)
Average number of basis functions per batch  ...    47.29 (31.11%)
Average number of large shells per batch     ...    10.14 (55.04%)
Average number of large basis fcns per batch ...    25.14 (53.17%)
Maximum spatial batch extension              ...  24.49, 24.19, 17.71 au
Average spatial batch extension              ...   0.84,  0.83,  0.67 au

Final grid set up in    0.2 sec
Final integration                            ... done (   0.1 sec)
Change in XC energy                          ...    -0.002289289
Integrated number of electrons               ...    61.000021070
Previous integrated no of electrons          ...    60.999825481
Total Energy       :        -3837.90553664 Eh         -104434.71901 eV
  Last Energy change         ...   -5.8250e-08  Tolerance :   1.0000e-08
  Last MAX-Density change    ...    2.7009e-06  Tolerance :   1.0000e-07
             **** THE GBW FILE WAS UPDATED (34_FeBr.gbw) ****
             **** DENSITY FILE WAS UPDATED (34_FeBr.scfp) ****
             **** ENERGY FILE WAS UPDATED (34_FeBr.en.tmp) ****
----------------------
UHF SPIN CONTAMINATION
----------------------

Warning: in a DFT calculation there is little theoretical justification to 
         calculate <S**2> as in Hartree-Fock theory. We will do it anyways
         but you should keep in mind that the values have only limited relevance

Expectation value of <S**2>     :     8.753499
Ideal value S*(S+1) for S=2.5   :     8.750000
Deviation                       :     0.003499

             **** THE GBW FILE WAS UPDATED (34_FeBr.gbw) ****
             **** DENSITY FILE WAS UPDATED (34_FeBr.scfp) ****
Total SCF time: 0 days 0 hours 0 min 3 sec 


-------------------------------------------------------------------------------
                          DFT DISPERSION CORRECTION                            
                                                                               
                              DFTD3 V3.1  Rev 1                                
                          USING Becke-Johnson damping                          
-------------------------------------------------------------------------------
-------------------------   ----------------
Dispersion correction           -0.001600264
-------------------------   ----------------


-------------------------   --------------------
FINAL SINGLE POINT ENERGY     -3837.907136907393
-------------------------   --------------------



           ************************************************************
           *        Program running with 24 parallel MPI-processes    *
           *              working on a common directory               *
           ************************************************************
------------------------------------------------------------------------------
                         ORCA SCF GRADIENT CALCULATION
------------------------------------------------------------------------------

Gradient of the Kohn-Sham DFT energy:
Kohn-Sham wavefunction type      ... UKS
Hartree-Fock exchange scaling    ...    0.000
Number of operators              ...    2
Number of atoms                  ...    2
Basis set dimensions             ...  152
Integral neglect threshold       ... 2.5e-11
Integral primitive cutoff        ... 2.5e-12

Nuclear repulsion gradient       ... done
One Electron Gradient            ... done
Pre-screening matrix             ... done
RI-J gradient                    ... done
Exchange-correlation gradient    ... done
Dispersion correction            ... done

------------------
CARTESIAN GRADIENT
------------------

   1   Fe  :   -0.000000003    0.000000005    0.038278955
   2   Br  :    0.000000002   -0.000000002   -0.037120904

Difference to translation invariance:
           :   -0.0000000006    0.0000000021    0.0011580511

Norm of the cartesian gradient     ...    0.0533220400
[...]
 131   0.0000       4.320284       117.5609 
 132   0.0000       4.349335       118.3514 
 133   0.0000       4.465117       121.5020 
 134   0.0000       4.465117       121.5020 
 135   0.0000       5.226395       142.2174 
 136   0.0000       8.695689       236.6217 
 137   0.0000       8.719511       237.2699 
 138   0.0000       8.719511       237.2699 
 139   0.0000       8.728549       237.5159 
 140   0.0000       8.752991       238.1810 
 141   0.0000       8.752991       238.1810 
 142   0.0000       8.782948       238.9962 
 143   0.0000       9.499534       258.4955 
 144   0.0000       9.504290       258.6249 
 145   0.0000       9.504290       258.6249 
 146   0.0000       9.521369       259.0896 
 147   0.0000       9.525876       259.2123 
 148   0.0000       9.528073       259.2720 
 149   0.0000       9.571411       260.4513 
 150   0.0000       9.571411       260.4513 
 151   0.0000       9.636863       262.2324 

                 SPIN DOWN ORBITALS
  NO   OCC          E(Eh)            E(eV) 
   0   1.0000    -481.730464    -13108.5524 
   1   1.0000    -255.308513     -6947.2978 
   2   1.0000     -61.943737     -1685.5748 
   3   1.0000     -55.777000     -1517.7693 
   4   1.0000     -55.775886     -1517.7390 
   5   1.0000     -55.775886     -1517.7390 
   6   1.0000     -29.666700      -807.2719 
   7   1.0000     -25.557170      -695.4460 
   8   1.0000     -25.541943      -695.0316 
   9   1.0000     -25.541943      -695.0316 
  10   1.0000      -8.469877      -230.4771 
  11   1.0000      -6.307922      -171.6473 
  12   1.0000      -6.305797      -171.5895 
  13   1.0000      -6.305797      -171.5895 
  14   1.0000      -3.302710       -89.8713 
  15   1.0000      -2.477174       -67.4073 
  16   1.0000      -2.476154       -67.3796 
  17   1.0000      -2.476154       -67.3796 
  18   1.0000      -2.474650       -67.3386 
  19   1.0000      -2.474417       -67.3323 
  20   1.0000      -2.100379       -57.1542 
  21   1.0000      -2.092184       -56.9312 
  22   1.0000      -2.092184       -56.9312 
  23   1.0000      -0.695732       -18.9318 
  24   1.0000      -0.318761        -8.6739 
  25   1.0000      -0.272932        -7.4268 
  26   1.0000      -0.272932        -7.4268 
  27   1.0000      -0.217646        -5.9224 
  28   0.0000      -0.183535        -4.9942 
  29   0.0000      -0.171654        -4.6709 
  30   0.0000      -0.171654        -4.6709 
  31   0.0000      -0.138928        -3.7804 
  32   0.0000      -0.116153        -3.1607 
  33   0.0000      -0.018888        -0.5140 
  34   0.0000      -0.018888        -0.5140 
  35   0.0000      -0.000298        -0.0081 
  36   0.0000       0.020394         0.5549 
  37   0.0000       0.032069         0.8727 
  38   0.0000       0.032069         0.8727 
  39   0.0000       0.054251         1.4762 
  40   0.0000       0.061248         1.6666 
  41   0.0000       0.062744         1.7074 
  42   0.0000       0.065192         1.7740 
  43   0.0000       0.071079         1.9342 
  44   0.0000       0.071079         1.9342 
  45   0.0000       0.099033         2.6948 
  46   0.0000       0.099033         2.6948 
  47   0.0000       0.099271         2.7013 
  48   0.0000       0.121114         3.2957 
  49   0.0000       0.173853         4.7308 
  50   0.0000       0.175575         4.7776 
  51   0.0000       0.175575         4.7776 
  52   0.0000       0.179183         4.8758 
  53   0.0000       0.180280         4.9057 
  54   0.0000       0.200874         5.4661 
  55   0.0000       0.236586         6.4378 
  56   0.0000       0.236586         6.4378 
  57   0.0000       0.266142         7.2421 
  58   0.0000       0.275998         7.5103 
  59   0.0000       0.290121         7.8946 
  60   0.0000       0.319357         8.6901 
  61   0.0000       0.319357         8.6901 
  62   0.0000       0.376834        10.2542 
  63   0.0000       0.426393        11.6028 
  64   0.0000       0.426393        11.6028 
  65   0.0000       0.476288        12.9604 
  66   0.0000       0.567471        15.4417 
  67   0.0000       0.592189        16.1143 
  68   0.0000       0.592318        16.1178 
  69   0.0000       0.604292        16.4436 
  70   0.0000       0.605844        16.4859 
  71   0.0000       0.605844        16.4859 
  72   0.0000       0.700965        19.0742 
  73   0.0000       0.703778        19.1508 
  74   0.0000       0.732122        19.9221 
  75   0.0000       0.732122        19.9221 
  76   0.0000       0.740817        20.1587 
  77   0.0000       0.740817        20.1587 
  78   0.0000       0.786129        21.3917 
  79   0.0000       0.849366        23.1124 
  80   0.0000       0.849366        23.1124 
  81   0.0000       0.865994        23.5649 
  82   0.0000       0.865994        23.5649 
  83   0.0000       0.931466        25.3465 
  84   0.0000       1.011323        27.5195 
  85   0.0000       1.014583        27.6082 
  86   0.0000       1.043027        28.3822 
  87   0.0000       1.062991        28.9255 
  88   0.0000       1.062991        28.9255 
  89   0.0000       1.075429        29.2639 
  90   0.0000       1.112818        30.2813 
  91   0.0000       1.194051        32.4918 
  92   0.0000       1.353005        36.8171 
  93   0.0000       1.353005        36.8171 
  94   0.0000       1.618795        44.0496 
  95   0.0000       1.826463        49.7006 
  96   0.0000       1.826463        49.7006 
  97   0.0000       1.949180        53.0399 
  98   0.0000       1.954249        53.1778 
  99   0.0000       1.966456        53.5100 
 100   0.0000       1.994849        54.2826 
 101   0.0000       1.994849        54.2826 
 102   0.0000       2.029718        55.2314 
 103   0.0000       2.034843        55.3709 
 104   0.0000       2.065466        56.2042 
 105   0.0000       2.065466        56.2042 
 106   0.0000       2.087019        56.7907 
 107   0.0000       2.087019        56.7907 
 108   0.0000       2.137784        58.1721 
 109   0.0000       2.383404        64.8557 
 110   0.0000       2.633547        71.6625 
 111   0.0000       2.633547        71.6625 
 112   0.0000       2.663426        72.4755 
 113   0.0000       2.699226        73.4497 
 114   0.0000       2.755663        74.9854 
 115   0.0000       2.755663        74.9854 
 116   0.0000       2.833404        77.1008 
 117   0.0000       2.889723        78.6334 
 118   0.0000       2.971153        80.8492 
 119   0.0000       2.971153        80.8492 
 120   0.0000       3.270090        88.9837 
 121   0.0000       3.280406        89.2644 
 122   0.0000       3.287606        89.4603 
 123   0.0000       3.287606        89.4603 
 124   0.0000       3.288762        89.4918 
 125   0.0000       3.308105        90.0181 
 126   0.0000       3.329371        90.5968 
 127   0.0000       3.455928        94.0406 
 128   0.0000       3.455928        94.0406 
 129   0.0000       3.522278        95.8461 
 130   0.0000       4.220444       114.8441 
 131   0.0000       4.425309       120.4188 
 132   0.0000       4.468504       121.5942 
 133   0.0000       4.592965       124.9809 
 134   0.0000       4.592965       124.9809 
 135   0.0000       5.344911       145.4424 
 136   0.0000       8.888999       241.8820 
 137   0.0000       8.889465       241.8946 
 138   0.0000       8.889465       241.8946 
 139   0.0000       8.924774       242.8554 
 140   0.0000       8.948402       243.4984 
 141   0.0000       8.948402       243.4984 
 142   0.0000       8.978864       244.3273 
 143   0.0000       9.640040       262.3188 
 144   0.0000       9.640040       262.3188 
 145   0.0000       9.645169       262.4584 
 146   0.0000       9.646402       262.4920 
 147   0.0000       9.648475       262.5483 
 148   0.0000       9.655930       262.7512 
 149   0.0000       9.711269       264.2571 
 150   0.0000       9.711269       264.2571 
 151   0.0000       9.777052       266.0471 

                    ********************************
                    * MULLIKEN POPULATION ANALYSIS *
                    ********************************

--------------------------------------------
MULLIKEN ATOMIC CHARGES AND SPIN POPULATIONS
--------------------------------------------
   0 Fe:    0.335079    4.716788
   1 Br:   -0.335079    0.283212
Sum of atomic charges         :   -0.0000000
Sum of atomic spin populations:    5.0000000

-----------------------------------------------------
MULLIKEN REDUCED ORBITAL CHARGES AND SPIN POPULATIONS
-----------------------------------------------------
CHARGE
  0 Fes       :     6.991082  s :     6.991082
      pz      :     4.274706  p :    12.356341
      px      :     4.040817
      py      :     4.040817
      dz2     :     1.112055  d :     6.302285
      dxz     :     1.096194
      dyz     :     1.096194
      dx2y2   :     0.999562
      dxy     :     1.998280
      f0      :     0.004869  f :     0.014747
      f+1     :     0.004877
      f-1     :     0.004877
      f+2     :     0.000002
      f-2     :     0.000019
      f+3     :     0.000052
      f-3     :     0.000052
      g0      :     0.000188  g :     0.000466
      g+1     :     0.000119
      g-1     :     0.000119
      g+2     :     0.000002
      g-2     :     0.000011
      g+3     :     0.000003
      g-3     :     0.000003
      g+4     :     0.000021
      g-4     :     0.000000
  1 Brs       :     8.012896  s :     8.012896
      pz      :     5.593064  p :    17.290717
      px      :     5.848827
      py      :     5.848826
      dz2     :     2.011039  d :    10.027431
      dxz     :     2.007592
      dyz     :     2.007592
      dx2y2   :     2.000211
      dxy     :     2.000996
      f0      :     0.000079  f :     0.004035
      f+1     :     0.001519
      f-1     :     0.001519
      f+2     :     0.000223
      f-2     :     0.000694
      f+3     :     0.000000
      f-3     :     0.000000

SPIN
  0 Fes       :     0.808891  s :     0.808891
      pz      :     0.211418  p :     0.231661
      px      :     0.010121
      py      :     0.010121
      dz2     :     0.871256  d :     3.677092
      dxz     :     0.902866
      dyz     :     0.902866
      dx2y2   :     0.999563
      dxy     :     0.000541
      f0      :    -0.000200  f :    -0.000795
      f+1     :    -0.000258
      f-1     :    -0.000258
      f+2     :     0.000000
      f-2     :    -0.000017
      f+3     :    -0.000032
      f-3     :    -0.000032
      g0      :    -0.000040  g :    -0.000060
      g+1     :    -0.000015
      g-1     :    -0.000015
      g+2     :     0.000002
      g-2     :     0.000008
      g+3     :     0.000000
      g-3     :     0.000000
      g+4     :    -0.000002
      g-4     :     0.000000
  1 Brs       :     0.005305  s :     0.005305
      pz      :     0.099260  p :     0.273585
      px      :     0.087163
      py      :     0.087163
      dz2     :     0.004061  d :     0.003978
      dxz     :     0.000050
      dyz     :     0.000050
      dx2y2   :     0.000212
      dxy     :    -0.000395
      f0      :     0.000051  f :     0.000344
      f+1     :     0.000103
      f-1     :     0.000103
      f+2     :     0.000223
      f-2     :    -0.000137
      f+3     :    -0.000000
      f-3     :    -0.000000


                     *******************************
                     * LOEWDIN POPULATION ANALYSIS *
                     *******************************

-------------------------------------------
LOEWDIN ATOMIC CHARGES AND SPIN POPULATIONS
-------------------------------------------
   0 Fe:   -0.048112    4.602269
   1 Br:    0.048112    0.397731

----------------------------------------------------
LOEWDIN REDUCED ORBITAL CHARGES AND SPIN POPULATIONS
----------------------------------------------------
CHARGE
  0 Fes       :     6.775380  s :     6.775380
      pz      :     4.484018  p :    12.620901
      px      :     4.068441
      py      :     4.068441
      dz2     :     1.247948  d :     6.550819
      dxz     :     1.155738
      dyz     :     1.155738
      dx2y2   :     0.997728
      dxy     :     1.993667
      f0      :     0.044520  f :     0.098668
      f+1     :     0.026992
      f-1     :     0.026992
      f+2     :     0.000025
      f-2     :     0.000034
      f+3     :     0.000052
      f-3     :     0.000052
      g0      :     0.001194  g :     0.002344
      g+1     :     0.000555
      g-1     :     0.000555
      g+2     :     0.000002
      g-2     :     0.000013
      g+3     :     0.000003
      g-3     :     0.000003
      g+4     :     0.000021
      g-4     :     0.000000
  1 Brs       :     7.667146  s :     7.667146
      pz      :     5.630110  p :    17.053796
      px      :     5.711843
      py      :     5.711843
      dz2     :     2.110350  d :    10.154694
      dxz     :     2.020261
      dyz     :     2.020261
      dx2y2   :     2.000912
      dxy     :     2.002909
      f0      :     0.039312  f :     0.076252
      f+1     :     0.016114
      f-1     :     0.016114
      f+2     :     0.001333
      f-2     :     0.003377
      f+3     :     0.000000
      f-3     :     0.000000

SPIN
  0 Fes       :     0.656534  s :     0.656534
      pz      :     0.280545  p :     0.314817
      px      :     0.017136
      py      :     0.017136
      dz2     :     0.858070  d :     3.623294
      dxz     :     0.883360
      dyz     :     0.883360
      dx2y2   :     0.997725
      dxy     :     0.000779
      f0      :     0.003056  f :     0.007448
      f+1     :     0.002205
      f-1     :     0.002205
      f+2     :     0.000022
      f-2     :     0.000024
      f+3     :    -0.000032
      f-3     :    -0.000032
      g0      :     0.000088  g :     0.000176
      g+1     :     0.000042
      g-1     :     0.000042
      g+2     :     0.000002
      g-2     :     0.000003
      g+3     :     0.000000
      g-3     :     0.000000
      g+4     :    -0.000002
      g-4     :     0.000000
  1 Brs       :     0.032861  s :     0.032861
      pz      :     0.134148  p :     0.291381
      px      :     0.078616
      py      :     0.078616
      dz2     :     0.030618  d :     0.049393
      dxz     :     0.009197
      dyz     :     0.009197
      dx2y2   :     0.000918
      dxy     :    -0.000537
      f0      :     0.004081  f :     0.024095
      f+1     :     0.009475
      f-1     :     0.009475
      f+2     :     0.001333
      f-2     :    -0.000270
      f+3     :    -0.000000
      f-3     :    -0.000000


                      *****************************
                      * MAYER POPULATION ANALYSIS *
                      *****************************

  NA   - Mulliken gross atomic population
  ZA   - Total nuclear charge
  QA   - Mulliken gross atomic charge
  VA   - Mayer's total valence
  BVA  - Mayer's bonded valence
  FA   - Mayer's free valence

  ATOM       NA         ZA         QA         VA         BVA        FA
  0 Fe    25.6649    26.0000     0.3351     5.5391     1.1356     4.4034
  1 Br    35.3351    35.0000    -0.3351     1.1674     1.1356     0.0317

  Mayer bond orders larger than 0.100000
B(  0-Fe,  1-Br) :   1.1356 

-------
TIMINGS
-------

Total SCF time: 0 days 0 hours 0 min 1 sec 

Total time                  ....       1.797 sec
Sum of individual times     ....       1.625 sec  ( 90.4%)

Fock matrix formation       ....       1.368 sec  ( 76.1%)
  Split-RI-J                ....       0.994 sec  ( 72.7% of F)
  XC integration            ....       0.184 sec  ( 13.5% of F)
    Basis function eval.    ....       0.025 sec  ( 13.7% of XC)
    Density eval.           ....       0.028 sec  ( 15.0% of XC)
    XC-Functional eval.     ....       0.006 sec  (  3.2% of XC)
    XC-Potential eval.      ....       0.057 sec  ( 31.1% of XC)
Diagonalization             ....       0.039 sec  (  2.2%)
Density matrix formation    ....       0.006 sec  (  0.3%)
Population analysis         ....       0.008 sec  (  0.4%)
Initial guess               ....       0.014 sec  (  0.8%)
Orbital Transformation      ....       0.000 sec  (  0.0%)
Orbital Orthonormalization  ....       0.008 sec  (  0.4%)
DIIS solution               ....       0.011 sec  (  0.6%)
Grid generation             ....       0.179 sec  ( 10.0%)


-------------------------------------------------------------------------------
                          DFT DISPERSION CORRECTION                            
                                                                               
                              DFTD3 V3.1  Rev 1                                
                          USING Becke-Johnson damping                          
-------------------------------------------------------------------------------
The TPSS functional is recognized
Active option DFTDOPT                   ...         4   

molecular C6(AA) [au] = 779.209238 


            DFT-D V3
 parameters
 s6 scaling factor         :     1.0000 
 a1 scaling factor         :     0.4535 
 s8 scaling factor         :     1.9435 
 a2 scaling factor         :     4.4752 
 ad hoc parameters k1-k3   :    16.0000     1.3333    -4.0000 

 Edisp/kcal,au: -1.006898849889  -0.001604595284 
 E6   /kcal   :  -0.322495573 
 E8   /kcal   :  -0.684403277 
 % E8         :  67.971403156 

-------------------------   ----------------
Dispersion correction           -0.001604595
-------------------------   ----------------


-------------------------   --------------------
FINAL SINGLE POINT ENERGY     -3837.911545820164
-------------------------   --------------------

                                *** OPTIMIZATION RUN DONE ***

                            ***************************************
                            *     ORCA property calculations      *
                            ***************************************

                                    ---------------------
                                    Active property flags
                                    ---------------------
   (+) Dipole Moment


------------------------------------------------------------------------------
                       ORCA ELECTRIC PROPERTIES CALCULATION
------------------------------------------------------------------------------

Dipole Moment Calculation                       ... on
Quadrupole Moment Calculation                   ... off
Polarizability Calculation                      ... off
GBWName                                         ... 34_FeBr.gbw
Electron density file                           ... 34_FeBr.scfp
The origin for moment calculation is the CENTER OF MASS  = ( 0.000000,  0.000000  2.278931)

-------------
DIPOLE MOMENT
-------------
                                X             Y             Z
Electronic contribution:      0.00000      -0.00000       3.35270
Nuclear contribution   :      0.00000       0.00000      -3.96973
                        -----------------------------------------
Total Dipole Moment    :      0.00000      -0.00000      -0.61703
                        -----------------------------------------
Magnitude (a.u.)       :      0.61703
Magnitude (Debye)      :      1.56835



--------------------
Rotational spectrum 
--------------------
 
Rotational constants in cm-1:     0.000000     0.094863     0.094863 
Rotational constants in MHz :     0.000000  2843.931812  2843.931812 

 Dipole components along the rotational axes: 
x,y,z [a.u.] :    -0.617026    -0.000000     0.000000 
x,y,z [Debye]:    -1.568355    -0.000000     0.000000 

 

Timings for individual modules:

Sum of individual times         ...       94.017 sec (=   1.567 min)
GTO integral calculation        ...       34.401 sec (=   0.573 min)  36.6 %
SCF iterations                  ...       24.598 sec (=   0.410 min)  26.2 %
SCF Gradient evaluation         ...       34.793 sec (=   0.580 min)  37.0 %
Geometry relaxation             ...        0.225 sec (=   0.004 min)   0.2 %
                             ****ORCA TERMINATED NORMALLY****
TOTAL RUN TIME: 0 days 0 hours 1 minutes 35 seconds 43 msec
