
                                 *****************
                                 * O   R   C   A *
                                 *****************

           --- An Ab Initio, DFT and Semiempirical electronic structure package ---

                  #######################################################
                  #                        -***-                        #
                  #          Department of theory and spectroscopy      #
                  #               Directorship: Frank Neese             #
                  #        Max Planck Institute fuer Kohlenforschung    #
                  #                Kaiser Wilhelm Platz 1               #
                  #                 D-45470 Muelheim/Ruhr               #
                  #                      Germany                        #
                  #                                                     #
                  #                  All rights reserved                #
                  #                        -***-                        #
                  #######################################################


                         Program Version 4.2.0 -  RELEASE  -


 With contributions from (in alphabetic order):
   Daniel Aravena         : Magnetic Suceptibility
   Michael Atanasov       : Ab Initio Ligand Field Theory (pilot matlab implementation)
   Alexander A. Auer      : GIAO ZORA, VPT2
   Ute Becker             : Parallelization
   Giovanni Bistoni       : ED, misc. LED, open-shell LED, HFLED
   Martin Brehm           : Molecular dynamics
   Dmytro Bykov           : SCF Hessian
   Vijay G. Chilkuri      : MRCI spin determinant printing, contributions to CSF-ICE
   Dipayan Datta          : RHF DLPNO-CCSD density
   Achintya Kumar Dutta   : EOM-CC, STEOM-CC
   Dmitry Ganyushin       : Spin-Orbit,Spin-Spin,Magnetic field MRCI
   Miquel Garcia          : C-PCM Hessian, Gaussian charge scheme
   Yang Guo               : DLPNO-NEVPT2, CIM, IAO-localization
   Andreas Hansen         : Spin unrestricted coupled pair/coupled cluster methods
   Benjamin Helmich-Paris : CASSCF linear response (MC-RPA)
   Lee Huntington         : MR-EOM, pCC
   Robert Izsak           : Overlap fitted RIJCOSX, COSX-SCS-MP3, EOM
   Christian Kollmar      : KDIIS, OOCD, Brueckner-CCSD(T), CCSD density
   Simone Kossmann        : Meta GGA functionals, TD-DFT gradient, OOMP2, MP2 Hessian
   Martin Krupicka        : AUTO-CI
   Lucas Lang             : DCDCAS
   Dagmar Lenk            : GEPOL surface, SMD
   Dimitrios Liakos       : Extrapolation schemes; Compound Job, initial MDCI parallelization
   Dimitrios Manganas     : Further ROCIS development; embedding schemes
   Dimitrios Pantazis     : SARC Basis sets
   Taras Petrenko         : DFT Hessian,TD-DFT gradient, ASA, ECA, R-Raman, ABS, FL, XAS/XES, NRVS
   Peter Pinski           : DLPNO-MP2, DLPNO-MP2 Gradient
   Christoph Reimann      : Effective Core Potentials
   Marius Retegan         : Local ZFS, SOC
   Christoph Riplinger    : Optimizer, TS searches, QM/MM, DLPNO-CCSD(T), (RO)-DLPNO pert. Triples
   Tobias Risthaus        : Range-separated hybrids, TD-DFT gradient, RPA, STAB
   Michael Roemelt        : Original ROCIS implementation
   Masaaki Saitow         : Open-shell DLPNO-CCSD energy and density
   Barbara Sandhoefer     : DKH picture change effects
   Avijit Sen             : IP-ROCIS
   Kantharuban Sivalingam : CASSCF convergence, NEVPT2, FIC-MRCI
   Bernardo de Souza      : ESD, SOC TD-DFT
   Georgi Stoychev        : AutoAux, RI-MP2 NMR
   Willem Van den Heuvel  : Paramagnetic NMR
   Boris Wezisla          : Elementary symmetry handling
   Frank Wennmohs         : Technical directorship


 We gratefully acknowledge several colleagues who have allowed us to
 interface, adapt or use parts of their codes:
   Stefan Grimme, W. Hujo, H. Kruse,             : VdW corrections, initial TS optimization,
                  C. Bannwarth                     DFT functionals, gCP, sTDA/sTD-DF
   Ed Valeev, F. Pavosevic, A. Kumar             : LibInt (2-el integral package), F12 methods
   Garnet Chan, S. Sharma, J. Yang, R. Olivares  : DMRG
   Ulf Ekstrom                                   : XCFun DFT Library
   Mihaly Kallay                                 : mrcc  (arbitrary order and MRCC methods)
   Andreas Klamt, Michael Diedenhofen            : otool_cosmo (COSMO solvation model)
   Jiri Pittner, Ondrej Demel                    : Mk-CCSD
   Frank Weinhold                                : gennbo (NPA and NBO analysis)
   Christopher J. Cramer and Donald G. Truhlar   : smd solvation model
   Lars Goerigk                                  : TD-DFT with DH, B97 family of functionals
   V. Asgeirsson, H. Jonsson                     : NEB implementation
   FAccTs GmbH                                   : IRC, NEB, NEB-TS, Multilevel, MM, QM/MM, CI optimization
   S Lehtola, MJT Oliveira, MAL Marques          : LibXC Library


 Your calculation uses the libint2 library for the computation of 2-el integrals
 For citations please refer to: http://libint.valeyev.net

 Your ORCA version has been built with support for libXC version: 4.2.3
 For citations please refer to: https://tddft.org/programs/libxc/

 This ORCA versions uses:
   CBLAS   interface :  Fast vector & matrix operations
   LAPACKE interface :  Fast linear algebra routines
   SCALAPACK package :  Parallel linear algebra routines


Your calculation utilizes the atom-pairwise dispersion correction
with the Becke-Johnson damping scheme (D3BJ)
Cite in your paper:
S.Grimme, S.Ehrlich, L.Goerigk, J Comput Chem, (2011), 32, 1456–1465 
S.Grimme, J.Antony, S.Ehrlich and H.Krieg, J.Chem.Phys., 132, (2010), 154104 
   

----- Orbital basis set information -----
Your calculation utilizes the basis: aug-cc-pVTZ 
    H, B-Ne : Obtained from the ccRepo (grant-hill.group.shef.ac.uk/ccrepo) Feb. 2017
              R. A. Kendall, T. H. Dunning, Jr., R. J. Harrison, J. Chem. Phys. 96, 6796 (1992)
         He : Obtained from the ccRepo (grant-hill.group.shef.ac.uk/ccrepo) Feb. 2017
              D. E. Woon, T. H. Dunning, Jr., J. Chem. Phys. 100, 2975 (1994)
  Li-Be, Na : Obtained from the ccRepo (grant-hill.group.shef.ac.uk/ccrepo) Feb. 2017
              B. P. Prascher, D. E. Woon, K. A. Peterson, T. H. Dunning, Jr., A. K. Wilson, Theor. Chem. Acc. 128, 69 (2011)
         Mg : Obtained from the Peterson Research Group Website (tyr0.chem.wsu.edu/~kipeters) Feb. 2017
              B. P. Prascher, D. E. Woon, K. A. Peterson, T. H. Dunning, Jr., A. K. Wilson, Theor. Chem. Acc. 128, 69 (2011)
      Al-Ar : Obtained from the ccRepo (grant-hill.group.shef.ac.uk/ccrepo) Feb. 2017
              D. E. Woon, T. H. Dunning, Jr., J. Chem. Phys. 98, 1358 (1993)
      Sc-Zn : Obtained from the ccRepo (grant-hill.group.shef.ac.uk/ccrepo) Feb. 2017
              N. B. Balabanov, K. A. Peterson, J. Chem. Phys. 123, 064107 (2005)
              N. B. Balabanov, K. A. Peterson, J. Chem. Phys. 125, 074110 (2006)
      Ga-Kr : Obtained from the ccRepo (grant-hill.group.shef.ac.uk/ccrepo) Feb. 2017
              A. K. Wilson, D. E. Woon, K. A. Peterson, T. H. Dunning, Jr., J. Chem. Phys. 110, 7667 (1999)
     Ag, Au : Obtained from the Peterson Research Group Website (tyr0.chem.wsu.edu/~kipeters) Feb. 2017
              K. A. Peterson, C. Puzzarini, Theor. Chem. Acc. 114, 283 (2005)

----- AuxJ basis set information -----
Your calculation utilizes the auxiliary basis: def2/J
   F. Weigend, Phys. Chem. Chem. Phys. 8, 1057 (2006).

================================================================================
                                        WARNINGS
                       Please study these warnings very carefully!
================================================================================


WARNING: your system is open-shell and RHF/RKS was chosen
  ===> : WILL SWITCH to UHF/UKS


WARNING: Geometry Optimization
  ===> : Switching off AutoStart
         For restart on a previous wavefunction, please use MOREAD

INFO   : the flag for use of LIBINT has been found!

================================================================================
                                       INPUT FILE
================================================================================
NAME = 37_CoH.in
|  1> #
|  2> # 37_CoH tpss/aug-cc-pvtz
|  3> #
|  4> ! tpss d3bj aug-cc-pvtz def2/j opt xyzfile
|  5> 
|  6> *xyz 0 3
|  7> Co 0.0 0.0 0.0
|  8> H 0.0 0.0 2.0
|  9> *
| 10> 
| 11> %pal
| 12> nprocs 24
| 13> end
| 14> 
| 15> 
| 16>                          ****END OF INPUT****
================================================================================

                       *****************************
                       * Geometry Optimization Run *
                       *****************************

Geometry optimization settings:
Update method            Update   .... BFGS
Choice of coordinates    CoordSys .... Z-matrix Internals
Initial Hessian          InHess   .... Almoef's Model

Convergence Tolerances:
Energy Change            TolE     ....  5.0000e-06 Eh
Max. Gradient            TolMAXG  ....  3.0000e-04 Eh/bohr
RMS Gradient             TolRMSG  ....  1.0000e-04 Eh/bohr
Max. Displacement        TolMAXD  ....  4.0000e-03 bohr
RMS Displacement         TolRMSD  ....  2.0000e-03 bohr
Strict Convergence                ....  False
------------------------------------------------------------------------------
                        ORCA OPTIMIZATION COORDINATE SETUP
------------------------------------------------------------------------------

The optimization will be done in new redundant internal coordinates
Making redundant internal coordinates   ...  (new redundants) done
Evaluating the initial hessian          ...  (Almloef) done
Evaluating the coordinates              ...  done
Calculating the B-matrix                .... done
Calculating the G-matrix                .... done
Diagonalizing the G-matrix              .... done
The first mode is                       ....    0
The number of degrees of freedom        ....    1

    -----------------------------------------------------------------
                    Redundant Internal Coordinates


    -----------------------------------------------------------------
         Definition                    Initial Value    Approx d2E/dq
    -----------------------------------------------------------------
      1. B(H   1,Co  0)                  2.0000         0.128736   
    -----------------------------------------------------------------

Number of atoms                         .... 2
Number of degrees of freedom            .... 1

         *************************************************************
         *                GEOMETRY OPTIMIZATION CYCLE   1            *
         *************************************************************
---------------------------------
CARTESIAN COORDINATES (ANGSTROEM)
---------------------------------
  Co     0.000000    0.000000    0.000000
  H      0.000000    0.000000    2.000000

----------------------------
CARTESIAN COORDINATES (A.U.)
----------------------------
  NO LB      ZA    FRAG     MASS         X           Y           Z
   0 Co   27.0000    0    58.930    0.000000    0.000000    0.000000
   1 H     1.0000    0     1.008    0.000000    0.000000    3.779452

--------------------------------
INTERNAL COORDINATES (ANGSTROEM)
--------------------------------
 Co     0   0   0     0.000000000000     0.00000000     0.00000000
 H      1   0   0     2.000000000000     0.00000000     0.00000000

---------------------------
INTERNAL COORDINATES (A.U.)
---------------------------
 Co     0   0   0     0.000000000000     0.00000000     0.00000000
 H      1   0   0     3.779452267843     0.00000000     0.00000000

---------------------
BASIS SET INFORMATION
---------------------
There are 2 groups of distinct atoms

 Group   1 Type Co  : 116s77p23d3f2g contracted to 8s7p5d3f2g pattern {19191919191911/151515151511/77711/111/11}
 Group   2 Type H   : 6s3p2d contracted to 4s3p2d pattern {3111/111/11}

Atom   0Co   basis set group =>   1
Atom   1H    basis set group =>   2
---------------------------------
AUXILIARY/J BASIS SET INFORMATION
---------------------------------
There are 2 groups of distinct atoms

 Group   1 Type Co  : 19s5p5d3f3g contracted to 8s5p5d2f3g pattern {121111111/11111/11111/21/111}
 Group   2 Type H   : 5s2p1d contracted to 3s1p1d pattern {311/2/1}

Atom   0Co   basis set group =>   1
Atom   1H    basis set group =>   2


           ************************************************************
           *        Program running with 24 parallel MPI-processes    *
           *              working on a common directory               *
           ************************************************************
------------------------------------------------------------------------------
                           ORCA GTO INTEGRAL CALCULATION
                           -- RI-GTO INTEGRALS CHOSEN --
------------------------------------------------------------------------------

                         BASIS SET STATISTICS AND STARTUP INFO

Gaussian basis set:
 # of primitive gaussian shells          ...  232
 # of primitive gaussian functions       ...  526
 # of contracted shells                  ...   34
 # of contracted basis functions         ...  116
 Highest angular momentum                ...    4
 Maximum contraction depth               ...   19
Auxiliary gaussian basis set:
 # of primitive gaussian shells          ...   43
 # of primitive gaussian functions       ...  123
 # of contracted shells                  ...   28
 # of contracted aux-basis functions     ...  100
 Highest angular momentum                ...    4
 Maximum contraction depth               ...   12
Ratio of auxiliary to basis functions    ...  0.86
Integral package used                  ... LIBINT
 One Electron integrals                  ... done
 Ordering auxiliary basis shells         ... done
 Integral threshhold             Thresh  ...  2.500e-11
 Primitive cut-off               TCut    ...  2.500e-12
 Pre-screening matrix                    ... done
 Shell pair data                         ... 
 Ordering of the shell pairs             ... done (   0.000 sec) 595 of 595 pairs
 Determination of significant pairs      ... done (   0.000 sec)
 Creation of shell pair data             ... done (   0.001 sec)
 Storage of shell pair data              ... done (   0.027 sec)
 Shell pair data done in (   0.027 sec)
 Computing two index integrals           ... done
 Cholesky decomposition of the V-matrix  ... done


Timings:
 Total evaluation time                   ...   2.094 sec (  0.035 min)
 One electron matrix time                ...   0.037 sec (  0.001 min) =  1.8%
 Schwartz matrix evaluation time         ...   2.004 sec (  0.033 min) = 95.7%
 Two index repulsion integral time       ...   0.000 sec (  0.000 min) =  0.0%
 Cholesky decomposition of V             ...   0.001 sec (  0.000 min) =  0.0%
 Three index repulsion integral time     ...   0.000 sec (  0.000 min) =  0.0%



           ************************************************************
           *        Program running with 24 parallel MPI-processes    *
           *              working on a common directory               *
           ************************************************************
-------------------------------------------------------------------------------
                                 ORCA SCF
-------------------------------------------------------------------------------

------------
SCF SETTINGS
------------
Hamiltonian:
 Density Functional     Method          .... DFT(GTOs)
 Exchange Functional    Exchange        .... TPSS
 Correlation Functional Correlation     .... TPSS
 LDA part of GGA corr.  LDAOpt          .... PW91-LDA
 Gradients option       PostSCFGGA      .... off
   Density functional embedding theory  .... OFF
   NL short-range parameter             ....  5.000000
 RI-approximation to the Coulomb term is turned on
   Number of auxiliary basis functions  .... 100


General Settings:
 Integral files         IntName         .... 37_CoH
 Hartree-Fock type      HFTyp           .... UHF
 Total Charge           Charge          ....    0
 Multiplicity           Mult            ....    3
 Number of Electrons    NEL             ....   28
 Basis Dimension        Dim             ....  116
 Nuclear Repulsion      ENuc            ....      7.1438923121 Eh

Convergence Acceleration:
 DIIS                   CNVDIIS         .... on
   Start iteration      DIISMaxIt       ....    12
   Startup error        DIISStart       ....  0.200000
   # of expansion vecs  DIISMaxEq       ....     5
   Bias factor          DIISBfac        ....   1.050
   Max. coefficient     DIISMaxC        ....  10.000
 Newton-Raphson         CNVNR           .... off
 SOSCF                  CNVSOSCF        .... off
 Level Shifting         CNVShift        .... on
   Level shift para.    LevelShift      ....    0.2500
   Turn off err/grad.   ShiftErr        ....    0.0010
 Zerner damping         CNVZerner       .... off
 Static damping         CNVDamp         .... on
   Fraction old density DampFac         ....    0.7000
   Max. Damping (<1)    DampMax         ....    0.9800
   Min. Damping (>=0)   DampMin         ....    0.0000
   Turn off err/grad.   DampErr         ....    0.1000
 Fernandez-Rico         CNVRico         .... off

SCF Procedure:
 Maximum # iterations   MaxIter         ....   125
 SCF integral mode      SCFMode         .... Direct
   Integral package                     .... LIBINT
 Reset frequency        DirectResetFreq ....    20
 Integral Threshold     Thresh          ....  2.500e-11 Eh
 Primitive CutOff       TCut            ....  2.500e-12 Eh

Convergence Tolerance:
 Convergence Check Mode ConvCheckMode   .... Total+1el-Energy
 Convergence forced     ConvForced      .... 0
 Energy Change          TolE            ....  1.000e-08 Eh
 1-El. energy change                    ....  1.000e-05 Eh
 DIIS Error             TolErr          ....  5.000e-07


Diagonalization of the overlap matrix:
Smallest eigenvalue                        ... 1.654e-04
Time for diagonalization                   ...    0.003 sec
Threshold for overlap eigenvalues          ... 1.000e-08
Number of eigenvalues below threshold      ... 0
Time for construction of square roots      ...    0.002 sec
Total time needed                          ...    0.005 sec

-------------------
DFT GRID GENERATION
-------------------

General Integration Accuracy     IntAcc      ...  4.340
Radial Grid Type                 RadialGrid  ... Gauss-Chebyshev
Angular Grid (max. acc.)         AngularGrid ... Lebedev-110
Angular grid pruning method      GridPruning ... 3 (G Style)
Weight generation scheme         WeightScheme... Becke
Basis function cutoff            BFCut       ...    1.0000e-11
Integration weight cutoff        WCut        ...    1.0000e-14
Grids for H and He will be reduced by one unit

# of grid points (after initial pruning)     ...   3706 (   0.0 sec)
# of grid points (after weights+screening)   ...   3685 (   0.0 sec)
nearest neighbour list constructed           ...    0.0 sec
Grid point re-assignment to atoms done       ...    0.0 sec
Grid point division into batches done        ...    0.0 sec
Reduced shell lists constructed in    0.0 sec

Total number of grid points                  ...     3685
Total number of batches                      ...       58
Average number of points per batch           ...       63
Average number of grid points per atom       ...     1842
Average number of shells per batch           ...    20.25 (59.56%)
Average number of basis functions per batch  ...    56.25 (48.49%)
Average number of large shells per batch     ...    15.00 (74.07%)
Average number of large basis fcns per batch ...    42.00 (74.67%)
Maximum spatial batch extension              ...  26.53, 28.73, 20.39 au
Average spatial batch extension              ...   1.14,  1.34,  0.91 au

Time for grid setup =    0.022 sec

------------------------------
INITIAL GUESS: MODEL POTENTIAL
------------------------------
Loading Hartree-Fock densities                     ... done
Calculating cut-offs                               ... done
Setting up the integral package                    ... done
Initializing the effective Hamiltonian             ... done
Starting the Coulomb interaction                   ... done (   0.0 sec)
Reading the grid                                   ... done
Mapping shells                                     ... done
Starting the XC term evaluation                    ... done (   0.0 sec)
  promolecular density results
     # of electrons  =     27.999326638
     EX              =    -57.981340345
     EC              =     -1.223681123
     EX+EC           =    -59.205021468
Transforming the Hamiltonian                       ... done (   0.0 sec)
Diagonalizing the Hamiltonian                      ... done (   0.0 sec)
Back transforming the eigenvectors                 ... done (   0.0 sec)
Now organizing SCF variables                       ... done
                      ------------------
                      INITIAL GUESS DONE (   0.1 sec)
                      ------------------
--------------
SCF ITERATIONS
--------------
ITER       Energy         Delta-E        Max-DP      RMS-DP      [F,P]     Damp
               ***  Starting incremental Fock matrix formation  ***
  0  -1383.2154589582   0.000000000000 0.11914263  0.00193383  0.3965023 0.7000
  1  -1383.2631764223  -0.047717464111 0.04463999  0.00077536  0.1108093 0.7000
                               ***Turning on DIIS***
  2  -1383.2874912909  -0.024314868601 0.06747944  0.00162945  0.0959223 0.0000
  3  -1383.3258217764  -0.038330485525 0.01409888  0.00034018  0.2392644 0.7000
  4  -1383.3390330891  -0.013211312737 0.01382579  0.00025899  0.1861058 0.7000
  5  -1383.3492718506  -0.010238761453 0.01497838  0.00019707  0.1375734 0.7000
  6  -1383.3562527459  -0.006980895284 0.04787488  0.00052845  0.0988524 0.0000
  7  -1383.3677800064  -0.011527260476 0.01076161  0.00016021  0.0077499 0.0000
  8  -1383.3684100154  -0.000630009039 0.00701547  0.00011139  0.0054744 0.0000
  9  -1383.3687479097  -0.000337894317 0.00594576  0.00009667  0.0039639 0.0000
 10  -1383.3689822359  -0.000234326222 0.00418911  0.00007449  0.0026783 0.0000
 11  -1383.3691120236  -0.000129787712 0.00313536  0.00004928  0.0017335 0.0000
 12  -1383.3691763191  -0.000064295498 0.00244337  0.00004093  0.0011017 0.0000
 13  -1383.3692146863  -0.000038367107 0.00482447  0.00007558  0.0006890 0.0000
 14  -1383.3692558718  -0.000041185539 0.00027583  0.00000448  0.0004135 0.0000
 15  -1383.3692570932  -0.000001221373 0.00131487  0.00001513  0.0001837 0.0000
 16  -1383.3692599124  -0.000002819267 0.00103057  0.00001196  0.0001192 0.0000
 17  -1383.3692613816  -0.000001469121 0.00048760  0.00000486  0.0000661 0.0000
 18  -1383.3692615841  -0.000000202522 0.00044815  0.00000529  0.0000388 0.0000
 19  -1383.3692617362  -0.000000152082 0.00050716  0.00000445  0.0000094 0.0000
               *** Restarting incremental Fock matrix formation ***
                                   *** Resetting DIIS ***
 20  -1383.3692755678  -0.000013831608 0.00015253  0.00000160  0.0001026 0.0000
 21  -1383.3692757130  -0.000000145199 0.00001311  0.00000029  0.0000123 0.0000
 22  -1383.3692756418   0.000000071213 0.00000878  0.00000018  0.0000438 0.0000
 23  -1383.3692757185  -0.000000076703 0.00000643  0.00000008  0.0000025 0.0000
 24  -1383.3692757139   0.000000004525 0.00000493  0.00000006  0.0000019 0.0000
                            ***DIIS convergence achieved***

               *****************************************************
               *                     SUCCESS                       *
               *           SCF CONVERGED AFTER  25 CYCLES          *
               *****************************************************

Setting up the final grid:

General Integration Accuracy     IntAcc      ...  4.670
Radial Grid Type                 RadialGrid  ... Gauss-Chebyshev
Angular Grid (max. acc.)         AngularGrid ... Lebedev-302
Angular grid pruning method      GridPruning ... 3 (G Style)
Weight generation scheme         WeightScheme... Becke
Basis function cutoff            BFCut       ...    1.0000e-11
Integration weight cutoff        WCut        ...    1.0000e-14
Grids for H and He will be reduced by one unit

# of grid points (after initial pruning)     ...  13034 (   0.0 sec)
# of grid points (after weights+screening)   ...  13005 (   0.0 sec)
nearest neighbour list constructed           ...    0.0 sec
Grid point re-assignment to atoms done       ...    0.0 sec
Grid point division into batches done        ...    0.1 sec
Reduced shell lists constructed in    0.1 sec

Total number of grid points                  ...    13005
Total number of batches                      ...      204
Average number of points per batch           ...       63
Average number of grid points per atom       ...     6502
Average number of shells per batch           ...    16.20 (47.65%)
Average number of basis functions per batch  ...    35.60 (30.69%)
Average number of large shells per batch     ...     9.40 (58.02%)
Average number of large basis fcns per batch ...    20.60 (57.87%)
Maximum spatial batch extension              ...  31.41, 28.57, 18.88 au
Average spatial batch extension              ...   1.02,  0.93,  0.73 au

Final grid set up in    0.1 sec
Final integration                            ... done (   0.1 sec)
Change in XC energy                          ...    -0.000747311
Integrated number of electrons               ...    28.000017117
Previous integrated no of electrons          ...    28.000818616

----------------
TOTAL SCF ENERGY
----------------

Total Energy       :        -1383.37002306 Eh          -37643.41208 eV

Components:
Nuclear Repulsion  :            7.14389231 Eh             194.39519 eV
Electronic Energy  :        -1390.51391537 Eh          -37837.80727 eV
One Electron Energy:        -1932.08191286 Eh          -52574.62169 eV
Two Electron Energy:          541.56799749 Eh           14736.81442 eV

Virial components:
Potential Energy   :        -2764.53371290 Eh          -75226.78678 eV
Kinetic Energy     :         1381.16368985 Eh           37583.37470 eV
Virial Ratio       :            2.00159745


DFT components:
N(Alpha)           :       15.000008334518 electrons
N(Beta)            :       13.000008782216 electrons
N(Total)           :       28.000017116734 electrons
E(X)               :      -58.494761969982 Eh       
E(C)               :       -1.230062917753 Eh       
E(XC)              :      -59.724824887735 Eh       
DFET-embed. en.    :        0.000000000000 Eh       

---------------
SCF CONVERGENCE
---------------

  Last Energy change         ...   -3.1906e-08  Tolerance :   1.0000e-08
  Last MAX-Density change    ...    2.9046e-06  Tolerance :   1.0000e-07
  Last RMS-Density change    ...    3.1255e-08  Tolerance :   5.0000e-09
  Last DIIS Error            ...    5.2874e-07  Tolerance :   5.0000e-07

             **** THE GBW FILE WAS UPDATED (37_CoH.gbw) ****
             **** DENSITY FILE WAS UPDATED (37_CoH.scfp) ****
             **** ENERGY FILE WAS UPDATED (37_CoH.en.tmp) ****
----------------------
UHF SPIN CONTAMINATION
----------------------

Warning: in a DFT calculation there is little theoretical justification to 
         calculate <S**2> as in Hartree-Fock theory. We will do it anyways
         but you should keep in mind that the values have only limited relevance

Expectation value of <S**2>     :     2.049464
Ideal value S*(S+1) for S=1.0   :     2.000000
Deviation                       :     0.049464

             **** THE GBW FILE WAS UPDATED (37_CoH.gbw) ****
             **** DENSITY FILE WAS UPDATED (37_CoH.scfp) ****
----------------
ORBITAL ENERGIES
----------------
                 SPIN UP ORBITALS
  NO   OCC          E(Eh)            E(eV) 
   0   1.0000    -276.613829     -7527.0450 
   1   1.0000     -32.383433      -881.1980 
   2   1.0000     -28.039839      -763.0028 
   3   1.0000     -28.039839      -763.0028 
   4   1.0000     -28.038472      -762.9656 
   5   1.0000      -3.569358       -97.1272 
   6   1.0000      -2.273797       -61.8732 
   7   1.0000      -2.273797       -61.8732 
   8   1.0000      -2.272627       -61.8413 
   9   1.0000      -0.234389        -6.3780 
  10   1.0000      -0.217709        -5.9242 
  11   1.0000      -0.197864        -5.3842 
  12   1.0000      -0.178446        -4.8558 
  13   1.0000      -0.177532        -4.8309 
  14   1.0000      -0.177532        -4.8309 
  15   0.0000      -0.113656        -3.0927 
  16   0.0000      -0.030743        -0.8366 
  17   0.0000      -0.030743        -0.8366 
  18   0.0000       0.004911         0.1336 
  19   0.0000       0.016722         0.4550 
  20   0.0000       0.037017         1.0073 
  21   0.0000       0.037017         1.0073 
  22   0.0000       0.048329         1.3151 
  23   0.0000       0.063358         1.7241 
  24   0.0000       0.063358         1.7241 
  25   0.0000       0.066200         1.8014 
  26   0.0000       0.066801         1.8177 
  27   0.0000       0.078546         2.1374 
  28   0.0000       0.109421         2.9775 
  29   0.0000       0.151696         4.1279 
  30   0.0000       0.191548         5.2123 
  31   0.0000       0.191548         5.2123 
  32   0.0000       0.193021         5.2524 
  33   0.0000       0.237574         6.4647 
  34   0.0000       0.237574         6.4647 
  35   0.0000       0.306566         8.3421 
  36   0.0000       0.306721         8.3463 
  37   0.0000       0.312633         8.5072 
  38   0.0000       0.325440         8.8557 
  39   0.0000       0.325440         8.8557 
  40   0.0000       0.418375        11.3846 
  41   0.0000       0.549686        14.9577 
  42   0.0000       0.597385        16.2557 
  43   0.0000       0.708106        19.2685 
  44   0.0000       0.708593        19.2818 
  45   0.0000       0.803435        21.8626 
  46   0.0000       0.803435        21.8626 
  47   0.0000       0.840989        22.8845 
  48   0.0000       0.840989        22.8845 
  49   0.0000       0.844734        22.9864 
  50   0.0000       0.937251        25.5039 
  51   0.0000       0.949526        25.8379 
  52   0.0000       0.949526        25.8379 
  53   0.0000       0.981938        26.7199 
  54   0.0000       0.981938        26.7199 
  55   0.0000       1.068689        29.0805 
  56   0.0000       1.070551        29.1312 
  57   0.0000       1.134424        30.8693 
  58   0.0000       1.205828        32.8122 
  59   0.0000       1.205828        32.8122 
  60   0.0000       1.225018        33.3344 
  61   0.0000       1.238900        33.7122 
  62   0.0000       1.327403        36.1205 
  63   0.0000       1.428367        38.8678 
  64   0.0000       1.428367        38.8678 
  65   0.0000       1.811616        49.2966 
  66   0.0000       2.752572        74.9013 
  67   0.0000       3.107621        84.5627 
  68   0.0000       3.107621        84.5627 
  69   0.0000       3.143750        85.5458 
  70   0.0000       3.152788        85.7917 
  71   0.0000       3.158785        85.9549 
  72   0.0000       3.238862        88.1339 
  73   0.0000       3.238862        88.1339 
  74   0.0000       3.273028        89.0636 
  75   0.0000       3.320141        90.3456 
  76   0.0000       3.320141        90.3456 
  77   0.0000       3.485188        94.8368 
  78   0.0000       3.748859       102.0116 
  79   0.0000       3.762365       102.3792 
  80   0.0000       3.762365       102.3792 
  81   0.0000       3.763893       102.4207 
  82   0.0000       3.770297       102.5950 
  83   0.0000       3.985470       108.4502 
  84   0.0000       3.985597       108.4536 
  85   0.0000       3.997507       108.7777 
  86   0.0000       3.997507       108.7777 
  87   0.0000       4.002035       108.9009 
  88   0.0000       4.002035       108.9009 
  89   0.0000       4.010529       109.1320 
  90   0.0000       4.018041       109.3364 
  91   0.0000       4.202292       114.3502 
  92   0.0000       4.202292       114.3502 
  93   0.0000       4.359325       118.6233 
  94   0.0000       4.563909       124.1903 
  95   0.0000       5.034890       137.0063 
  96   0.0000       5.066649       137.8705 
  97   0.0000       5.123168       139.4085 
  98   0.0000       5.123168       139.4085 
  99   0.0000       5.862023       159.5138 
 100   0.0000      10.320789       280.8430 
 101   0.0000      10.320789       280.8430 
 102   0.0000      10.349175       281.6154 
 103   0.0000      10.382731       282.5285 
 104   0.0000      10.396341       282.8988 
 105   0.0000      10.396341       282.8988 
 106   0.0000      10.413528       283.3665 
 107   0.0000      11.467173       312.0377 
 108   0.0000      11.468252       312.0670 
 109   0.0000      11.481743       312.4341 
 110   0.0000      11.490100       312.6615 
 111   0.0000      11.490100       312.6615 
 112   0.0000      11.505989       313.0939 
 113   0.0000      11.514511       313.3258 
 114   0.0000      11.514511       313.3258 
 115   0.0000      11.601894       315.7036 

                 SPIN DOWN ORBITALS
  NO   OCC          E(Eh)            E(eV) 
   0   1.0000    -276.613189     -7527.0275 
   1   1.0000     -32.352055      -880.3442 
   2   1.0000     -28.014523      -762.3139 
   3   1.0000     -28.013577      -762.2882 
   4   1.0000     -28.013577      -762.2882 
   5   1.0000      -3.489897       -94.9649 
   6   1.0000      -2.193811       -59.6966 
   7   1.0000      -2.193811       -59.6966 
   8   1.0000      -2.192390       -59.6580 
   9   1.0000      -0.232411        -6.3242 
  10   1.0000      -0.146212        -3.9786 
  11   1.0000      -0.145731        -3.9655 
  12   1.0000      -0.145731        -3.9655 
  13   0.0000      -0.111162        -3.0249 
  14   0.0000      -0.078592        -2.1386 
  15   0.0000      -0.075159        -2.0452 
  16   0.0000      -0.017608        -0.4791 
  17   0.0000      -0.017608        -0.4791 
  18   0.0000       0.010177         0.2769 
  19   0.0000       0.019681         0.5355 
  20   0.0000       0.044061         1.1990 
  21   0.0000       0.044061         1.1990 
  22   0.0000       0.051849         1.4109 
  23   0.0000       0.065847         1.7918 
  24   0.0000       0.065847         1.7918 
  25   0.0000       0.072945         1.9849 
  26   0.0000       0.076318         2.0767 
  27   0.0000       0.081227         2.2103 
  28   0.0000       0.119138         3.2419 
  29   0.0000       0.152915         4.1610 
  30   0.0000       0.197460         5.3732 
  31   0.0000       0.209251         5.6940 
  32   0.0000       0.209251         5.6940 
  33   0.0000       0.235045         6.3959 
  34   0.0000       0.235045         6.3959 
  35   0.0000       0.319608         8.6970 
  36   0.0000       0.319685         8.6991 
  37   0.0000       0.332299         9.0423 
  38   0.0000       0.332299         9.0423 
  39   0.0000       0.335374         9.1260 
  40   0.0000       0.428180        11.6514 
  41   0.0000       0.551214        14.9993 
  42   0.0000       0.604741        16.4558 
  43   0.0000       0.699514        19.0348 
  44   0.0000       0.701841        19.0981 
  45   0.0000       0.819178        22.2910 
  46   0.0000       0.819178        22.2910 
  47   0.0000       0.852279        23.1917 
  48   0.0000       0.856282        23.3006 
  49   0.0000       0.856282        23.3006 
  50   0.0000       0.933807        25.4102 
  51   0.0000       0.933807        25.4102 
  52   0.0000       0.939283        25.5592 
  53   0.0000       1.026688        27.9376 
  54   0.0000       1.026688        27.9376 
  55   0.0000       1.076079        29.2816 
  56   0.0000       1.091213        29.6934 
  57   0.0000       1.168352        31.7925 
  58   0.0000       1.226391        33.3718 
  59   0.0000       1.226391        33.3718 
  60   0.0000       1.267137        34.4805 
  61   0.0000       1.308044        35.5937 
  62   0.0000       1.351499        36.7762 
  63   0.0000       1.441493        39.2250 
  64   0.0000       1.441493        39.2250 
  65   0.0000       1.835807        49.9548 
  66   0.0000       2.738009        74.5050 
  67   0.0000       3.161214        86.0210 
  68   0.0000       3.177782        86.4718 
  69   0.0000       3.177782        86.4718 
  70   0.0000       3.187758        86.7433 
  71   0.0000       3.212534        87.4175 
  72   0.0000       3.292726        89.5996 
  73   0.0000       3.292726        89.5996 
  74   0.0000       3.335574        90.7656 
  75   0.0000       3.377869        91.9165 
  76   0.0000       3.377869        91.9165 
  77   0.0000       3.527681        95.9931 
  78   0.0000       3.734666       101.6254 
  79   0.0000       3.751377       102.0802 
  80   0.0000       3.764216       102.4295 
  81   0.0000       3.764216       102.4295 
  82   0.0000       3.799509       103.3899 
  83   0.0000       3.991334       108.6097 
  84   0.0000       3.991334       108.6097 
  85   0.0000       4.026895       109.5774 
  86   0.0000       4.026895       109.5774 
  87   0.0000       4.031149       109.6931 
  88   0.0000       4.052726       110.2803 
  89   0.0000       4.056071       110.3713 
  90   0.0000       4.057115       110.3997 
  91   0.0000       4.228689       115.0685 
  92   0.0000       4.228689       115.0685 
  93   0.0000       4.372725       118.9879 
  94   0.0000       4.616490       125.6211 
  95   0.0000       5.105491       138.9275 
  96   0.0000       5.147973       140.0835 
  97   0.0000       5.161227       140.4441 
  98   0.0000       5.161227       140.4441 
  99   0.0000       5.934821       161.4947 
 100   0.0000      10.410666       283.2886 
 101   0.0000      10.440781       284.1081 
 102   0.0000      10.440781       284.1081 
 103   0.0000      10.443572       284.1841 
 104   0.0000      10.505497       285.8691 
 105   0.0000      10.505497       285.8691 
 106   0.0000      10.551871       287.1310 
 107   0.0000      11.557632       314.4992 
 108   0.0000      11.557632       314.4992 
 109   0.0000      11.560797       314.5853 
 110   0.0000      11.563734       314.6652 
 111   0.0000      11.564893       314.6967 
 112   0.0000      11.567397       314.7649 
 113   0.0000      11.597119       315.5736 
 114   0.0000      11.597119       315.5736 
 115   0.0000      11.701815       318.4226 

                    ********************************
                    * MULLIKEN POPULATION ANALYSIS *
                    ********************************

--------------------------------------------
MULLIKEN ATOMIC CHARGES AND SPIN POPULATIONS
--------------------------------------------
   0 Co:    0.276792    2.199003
   1 H :   -0.276792   -0.199003
Sum of atomic charges         :   -0.0000000
Sum of atomic spin populations:    2.0000000

-----------------------------------------------------
MULLIKEN REDUCED ORBITAL CHARGES AND SPIN POPULATIONS
-----------------------------------------------------
CHARGE
  0 Cos       :     6.679096  s :     6.679096
      pz      :     4.041142  p :    12.045651
      px      :     4.002254
      py      :     4.002254
      dz2     :     1.008758  d :     7.996595
      dxz     :     1.994090
      dyz     :     1.994090
      dx2y2   :     0.999932
      dxy     :     1.999726
      f0      :     0.001326  f :     0.001825
      f+1     :     0.000125
      f-1     :     0.000125
      f+2     :     0.000050
      f-2     :     0.000131
      f+3     :     0.000034
      f-3     :     0.000034
      g0      :    -0.000009  g :     0.000041
      g+1     :     0.000000
      g-1     :     0.000000
      g+2     :     0.000009
      g-2     :     0.000010
      g+3     :     0.000007
      g-3     :     0.000007
      g+4     :     0.000015
      g-4     :     0.000000
  1 H s       :     1.260493  s :     1.260493
      pz      :     0.010088  p :     0.014991
      px      :     0.002452
      py      :     0.002452
      dz2     :    -0.000910  d :     0.001308
      dxz     :     0.001038
      dyz     :     0.001038
      dx2y2   :     0.000008
      dxy     :     0.000133

SPIN
  0 Cos       :     0.311082  s :     0.311082
      pz      :    -0.012843  p :    -0.013077
      px      :    -0.000117
      py      :    -0.000117
      dz2     :     0.897988  d :     1.901145
      dxz     :     0.001551
      dyz     :     0.001551
      dx2y2   :     0.999932
      dxy     :     0.000123
      f0      :    -0.000182  f :    -0.000181
      f+1     :    -0.000004
      f-1     :    -0.000004
      f+2     :     0.000050
      f-2     :    -0.000008
      f+3     :    -0.000016
      f-3     :    -0.000016
      g0      :     0.000035  g :     0.000034
      g+1     :     0.000000
      g-1     :     0.000000
      g+2     :     0.000009
      g-2     :    -0.000003
      g+3     :    -0.000004
      g-3     :    -0.000004
      g+4     :    -0.000000
      g-4     :    -0.000000
  1 H s       :    -0.198429  s :    -0.198429
      pz      :     0.002382  p :     0.000264
      px      :    -0.001059
      py      :    -0.001059
      dz2     :    -0.000034  d :    -0.000838
      dxz     :    -0.000350
      dyz     :    -0.000350
      dx2y2   :     0.000008
      dxy     :    -0.000112


                     *******************************
                     * LOEWDIN POPULATION ANALYSIS *
                     *******************************

-------------------------------------------
LOEWDIN ATOMIC CHARGES AND SPIN POPULATIONS
-------------------------------------------
   0 Co:    0.267607    2.094689
   1 H :   -0.267607   -0.094689

----------------------------------------------------
LOEWDIN REDUCED ORBITAL CHARGES AND SPIN POPULATIONS
----------------------------------------------------
CHARGE
  0 Cos       :     6.666840  s :     6.666840
      pz      :     4.094565  p :    12.089360
      px      :     3.997398
      py      :     3.997398
      dz2     :     1.050305  d :     7.965127
      dxz     :     1.958952
      dyz     :     1.958952
      dx2y2   :     0.999161
      dxy     :     1.997757
      f0      :     0.008733  f :     0.010890
      f+1     :     0.000924
      f-1     :     0.000924
      f+2     :     0.000066
      f-2     :     0.000176
      f+3     :     0.000034
      f-3     :     0.000034
      g0      :     0.000091  g :     0.000176
      g+1     :     0.000017
      g-1     :     0.000017
      g+2     :     0.000010
      g-2     :     0.000009
      g+3     :     0.000007
      g-3     :     0.000007
      g+4     :     0.000015
      g-4     :     0.000000
  1 H s       :     1.043309  s :     1.043309
      pz      :     0.085534  p :     0.117218
      px      :     0.015842
      py      :     0.015842
      dz2     :     0.050609  d :     0.107080
      dxz     :     0.026826
      dyz     :     0.026826
      dx2y2   :     0.000762
      dxy     :     0.002058

SPIN
  0 Cos       :     0.269526  s :     0.269526
      pz      :    -0.044510  p :    -0.044920
      px      :    -0.000205
      py      :    -0.000205
      dz2     :     0.867721  d :     1.872061
      dxz     :     0.002510
      dyz     :     0.002510
      dx2y2   :     0.999161
      dxy     :     0.000159
      f0      :    -0.002015  f :    -0.002003
      f+1     :    -0.000006
      f-1     :    -0.000006
      f+2     :     0.000066
      f-2     :    -0.000011
      f+3     :    -0.000016
      f-3     :    -0.000016
      g0      :     0.000016  g :     0.000025
      g+1     :     0.000004
      g-1     :     0.000004
      g+2     :     0.000010
      g-2     :    -0.000001
      g+3     :    -0.000004
      g-3     :    -0.000004
      g+4     :    -0.000000
      g-4     :    -0.000000
  1 H s       :    -0.111439  s :    -0.111439
      pz      :     0.018531  p :     0.015260
      px      :    -0.001636
      py      :    -0.001636
      dz2     :     0.002170  d :     0.001491
      dxz     :    -0.000647
      dyz     :    -0.000647
      dx2y2   :     0.000762
      dxy     :    -0.000148


                      *****************************
                      * MAYER POPULATION ANALYSIS *
                      *****************************

  NA   - Mulliken gross atomic population
  ZA   - Total nuclear charge
  QA   - Mulliken gross atomic charge
  VA   - Mayer's total valence
  BVA  - Mayer's bonded valence
  FA   - Mayer's free valence

  ATOM       NA         ZA         QA         VA         BVA        FA
  0 Co    26.7232    27.0000     0.2768     2.9386     0.9141     2.0245
  1 H      1.2768     1.0000    -0.2768     0.9554     0.9141     0.0413

  Mayer bond orders larger than 0.100000
B(  0-Co,  1-H ) :   0.9141 

-------
TIMINGS
-------

Total SCF time: 0 days 0 hours 0 min 3 sec 

Total time                  ....       3.791 sec
Sum of individual times     ....       3.658 sec  ( 96.5%)

Fock matrix formation       ....       3.306 sec  ( 87.2%)
  Split-RI-J                ....       2.790 sec  ( 84.4% of F)
  XC integration            ....       0.323 sec  (  9.8% of F)
    Basis function eval.    ....       0.033 sec  ( 10.3% of XC)
    Density eval.           ....       0.034 sec  ( 10.6% of XC)
    XC-Functional eval.     ....       0.011 sec  (  3.4% of XC)
    XC-Potential eval.      ....       0.089 sec  ( 27.6% of XC)
Diagonalization             ....       0.083 sec  (  2.2%)
Density matrix formation    ....       0.013 sec  (  0.4%)
Population analysis         ....       0.006 sec  (  0.2%)
Initial guess               ....       0.119 sec  (  3.1%)
Orbital Transformation      ....       0.000 sec  (  0.0%)
Orbital Orthonormalization  ....       0.000 sec  (  0.0%)
DIIS solution               ....       0.031 sec  (  0.8%)
Grid generation             ....       0.100 sec  (  2.6%)


-------------------------------------------------------------------------------
                          DFT DISPERSION CORRECTION                            
                                                                               
                              DFTD3 V3.1  Rev 1                                
                          USING Becke-Johnson damping                          
-------------------------------------------------------------------------------
The TPSS functional is recognized
Active option DFTDOPT                   ...         4   

molecular C6(AA) [au] = 656.967408 


            DFT-D V3
 parameters
 s6 scaling factor         :     1.0000 
 a1 scaling factor         :     0.4535 
 s8 scaling factor         :     1.9435 
 a2 scaling factor         :     4.4752 
 ad hoc parameters k1-k3   :    16.0000     1.3333    -4.0000 

 Edisp/kcal,au: -0.661409067251  -0.001054022328 
 E6   /kcal   :  -0.288741634 
 E8   /kcal   :  -0.372667433 
 % E8         :  56.344469993 

-------------------------   ----------------
Dispersion correction           -0.001054022
-------------------------   ----------------


-------------------------   --------------------
FINAL SINGLE POINT ENERGY     -1383.371077079414
-------------------------   --------------------



           ************************************************************
           *        Program running with 24 parallel MPI-processes    *
           *              working on a common directory               *
           ************************************************************
------------------------------------------------------------------------------
                         ORCA SCF GRADIENT CALCULATION
------------------------------------------------------------------------------

Gradient of the Kohn-Sham DFT energy:
Kohn-Sham wavefunction type      ... UKS
Hartree-Fock exchange scaling    ...    0.000
Number of operators              ...    2
Number of atoms                  ...    2
Basis set dimensions             ...  116
Integral neglect threshold       ... 2.5e-11
Integral primitive cutoff        ... 2.5e-12

Nuclear repulsion gradient       ... done
One Electron Gradient            ... done
Pre-screening matrix             ... done
RI-J gradient                    ... done
Exchange-correlation gradient    ... done
Dispersion correction            ... done

------------------
CARTESIAN GRADIENT
------------------

   1   Co  :   -0.000000005   -0.000000004   -0.043087956
   2   H   :    0.000000000    0.000000000    0.043239557

Difference to translation invariance:
           :   -0.0000000045   -0.0000000033    0.0001516008

Norm of the cartesian gradient     ...    0.0610428637
RMS gradient                       ...    0.0249206448
MAX gradient                       ...    0.0432395567

-------
TIMINGS
-------

Total SCF gradient time            ...        4.134 sec

One electron gradient       ....       0.064 sec  (  1.6%)
Prescreening matrices       ....       3.357 sec  ( 81.2%)
RI-J Coulomb gradient       ....       0.149 sec  (  3.6%)
XC gradient                 ....       0.031 sec  (  0.7%)
------------------------------------------------------------------------------
                         ORCA GEOMETRY RELAXATION STEP
------------------------------------------------------------------------------

Reading the OPT-File                    .... done
Getting information on internals        .... done
Copying old internal coords+grads       .... done
Making the new internal coordinates     .... (new redundants).... done
Validating the new internal coordinates .... (new redundants).... done
Calculating the B-matrix                .... done
Calculating the G,G- and P matrices     .... done
Transforming gradient to internals      .... done
Projecting the internal gradient        .... done
Number of atoms                         ....   2
Number of internal coordinates          ....   1
Current Energy                          .... -1383.371077079 Eh
Current gradient norm                   ....     0.061042864 Eh/bohr
Maximum allowed component of the step   ....  0.300
Current trust radius                    ....  0.300
Evaluating the initial hessian          ....  (Almloef) done
Projecting the Hessian                  .... done
Forming the augmented Hessian           .... done
Diagonalizing the augmented Hessian     .... done
Last element of RFO vector              ....  0.956699679
Lowest eigenvalues of augmented Hessian:
 -0.013132616
Length of the computed step             ....  0.304251000
Warning: the length of the step is outside the trust region - taking restricted step instead
The input lambda is                     ....    -0.013133
   iter:   1  x=   -0.015101  g=    1.304989 f(x)=     0.002569
   iter:   2  x=   -0.015143  g=    1.252144 f(x)=     0.000052
   iter:   3  x=   -0.015143  g=    1.251050 f(x)=     0.000000
   iter:   4  x=   -0.015143  g=    1.251050 f(x)=     0.000000
The output lambda is                    ....    -0.015143 (4 iterations)
The final length of the internal step   ....  0.300000000
Converting the step to cartesian space:
 Initial RMS(Int)=    0.3000000000
Transforming coordinates:
 Iter   0:  RMS(Cart)=    0.0866025404 RMS(Int)=    0.3000000000
 Iter   1:  RMS(Cart)=    0.0000000000 RMS(Int)=    0.0000000000
done
Storing new coordinates                 .... done

                                .--------------------.
          ----------------------|Geometry convergence|-------------------------
          Item                value                   Tolerance       Converged
          ---------------------------------------------------------------------
          RMS gradient        0.0431637563            0.0001000000      NO
          MAX gradient        0.0431637563            0.0003000000      NO
          RMS step            0.3000000000            0.0020000000      NO
          MAX step            0.3000000000            0.0040000000      NO
          ........................................................
          Max(Bonds)      0.1588      Max(Angles)    0.00
          Max(Dihed)        0.00      Max(Improp)    0.00
          ---------------------------------------------------------------------

The optimization has not yet converged - more geometry cycles are needed


    ---------------------------------------------------------------------------
                         Redundant Internal Coordinates
                            (Angstroem and degrees)

        Definition                    Value    dE/dq     Step     New-Value
    ----------------------------------------------------------------------------
     1. B(H   1,Co  0)                2.0000  0.043164 -0.1588    1.8412   
    ----------------------------------------------------------------------------

         *************************************************************
         *                GEOMETRY OPTIMIZATION CYCLE   2            *
         *************************************************************
---------------------------------
CARTESIAN COORDINATES (ANGSTROEM)
---------------------------------
  Co     0.000000    0.000000    0.079377
  H      0.000000    0.000000    1.920623

----------------------------
CARTESIAN COORDINATES (A.U.)
----------------------------
  NO LB      ZA    FRAG     MASS         X           Y           Z
   0 Co   27.0000    0    58.930    0.000000    0.000000    0.150000
   1 H     1.0000    0     1.008    0.000000    0.000000    3.629452

--------------------------------
INTERNAL COORDINATES (ANGSTROEM)
--------------------------------
 Co     0   0   0     0.000000000000     0.00000000     0.00000000
 H      1   0   0     1.841246837510     0.00000000     0.00000000

---------------------------
INTERNAL COORDINATES (A.U.)
---------------------------
 Co     0   0   0     0.000000000000     0.00000000     0.00000000
 H      1   0   0     3.479452267843     0.00000000     0.00000000



           ************************************************************
           *        Program running with 24 parallel MPI-processes    *
           *              working on a common directory               *
           ************************************************************
 One Electron integrals                  ... done
 Pre-screening matrix                    ... done


           ************************************************************
           *        Program running with 24 parallel MPI-processes    *
           *              working on a common directory               *
           ************************************************************

Diagonalization of the overlap matrix:
Smallest eigenvalue                        ... 1.312e-04
Time for diagonalization                   ...    0.004 sec
Threshold for overlap eigenvalues          ... 1.000e-08
Number of eigenvalues below threshold      ... 0
Time for construction of square roots      ...    0.002 sec
Total time needed                          ...    0.006 sec

-------------------
DFT GRID GENERATION
-------------------

General Integration Accuracy     IntAcc      ...  4.340
Radial Grid Type                 RadialGrid  ... Gauss-Chebyshev
Angular Grid (max. acc.)         AngularGrid ... Lebedev-110
Angular grid pruning method      GridPruning ... 3 (G Style)
Weight generation scheme         WeightScheme... Becke
Basis function cutoff            BFCut       ...    1.0000e-11
Integration weight cutoff        WCut        ...    1.0000e-14
Grids for H and He will be reduced by one unit

# of grid points (after initial pruning)     ...   3706 (   0.0 sec)
# of grid points (after weights+screening)   ...   3683 (   0.0 sec)
nearest neighbour list constructed           ...    0.0 sec
Grid point re-assignment to atoms done       ...    0.0 sec
Grid point division into batches done        ...    0.0 sec
Reduced shell lists constructed in    0.0 sec

Total number of grid points                  ...     3683
Total number of batches                      ...       59
Average number of points per batch           ...       62
Average number of grid points per atom       ...     1842
Average number of shells per batch           ...    20.25 (59.56%)
Average number of basis functions per batch  ...    56.25 (48.49%)
Average number of large shells per batch     ...    15.00 (74.07%)
Average number of large basis fcns per batch ...    42.00 (74.67%)
Maximum spatial batch extension              ...  37.20, 28.73, 20.18 au
Average spatial batch extension              ...   1.30,  1.31,  0.88 au

Time for grid setup =    0.016 sec

--------------
SCF ITERATIONS
--------------
ITER       Energy         Delta-E        Max-DP      RMS-DP      [F,P]     Damp
               ***  Starting incremental Fock matrix formation  ***
  0  -1383.3811902184   0.000000000000 0.00538417  0.00010574  0.0169146 0.7000
  1  -1383.3813565695  -0.000166351093 0.00439454  0.00009008  0.0116185 0.7000
                               ***Turning on DIIS***
  2  -1383.3814832978  -0.000126728316 0.01116892  0.00022804  0.0070801 0.0000
  3  -1383.3817677037  -0.000284405866 0.00264273  0.00004820  0.0034284 0.0000
  4  -1383.3818071667  -0.000039462988 0.00149285  0.00002661  0.0010992 0.0000
  5  -1383.3818199444  -0.000012777721 0.00357736  0.00004285  0.0007695 0.0000
  6  -1383.3818320440  -0.000012099619 0.00014247  0.00000437  0.0012773 0.0000
  7  -1383.3818338561  -0.000001812084 0.00050331  0.00000985  0.0002480 0.0000
  8  -1383.3818349962  -0.000001140080 0.00024495  0.00000391  0.0001574 0.0000
  9  -1383.3818353206  -0.000000324454 0.00016261  0.00000169  0.0000974 0.0000
 10  -1383.3818354918  -0.000000171123 0.00005949  0.00000086  0.0000181 0.0000
 11  -1383.3818354394   0.000000052321 0.00006287  0.00000062  0.0000190 0.0000
 12  -1383.3818354508  -0.000000011397 0.00004269  0.00000048  0.0000053 0.0000
 13  -1383.3818354194   0.000000031486 0.00002932  0.00000036  0.0000035 0.0000
                            ***DIIS convergence achieved***

               *****************************************************
               *                     SUCCESS                       *
               *           SCF CONVERGED AFTER  14 CYCLES          *
               *****************************************************

Setting up the final grid:

General Integration Accuracy     IntAcc      ...  4.670
Radial Grid Type                 RadialGrid  ... Gauss-Chebyshev
Angular Grid (max. acc.)         AngularGrid ... Lebedev-302
Angular grid pruning method      GridPruning ... 3 (G Style)
Weight generation scheme         WeightScheme... Becke
Basis function cutoff            BFCut       ...    1.0000e-11
Integration weight cutoff        WCut        ...    1.0000e-14
Grids for H and He will be reduced by one unit

# of grid points (after initial pruning)     ...  13034 (   0.0 sec)
# of grid points (after weights+screening)   ...  13004 (   0.0 sec)
nearest neighbour list constructed           ...    0.0 sec
Grid point re-assignment to atoms done       ...    0.0 sec
Grid point division into batches done        ...    0.1 sec
Reduced shell lists constructed in    0.1 sec

Total number of grid points                  ...    13004
Total number of batches                      ...      204
Average number of points per batch           ...       63
Average number of grid points per atom       ...     6502
Average number of shells per batch           ...    16.20 (47.65%)
Average number of basis functions per batch  ...    35.60 (30.69%)
Average number of large shells per batch     ...     9.40 (58.02%)
Average number of large basis fcns per batch ...    20.60 (57.87%)
Maximum spatial batch extension              ...  31.41, 28.57, 18.88 au
Average spatial batch extension              ...   1.02,  0.93,  0.73 au

Final grid set up in    0.1 sec
Final integration                            ... done (   0.1 sec)
Change in XC energy                          ...    -0.000779358
Integrated number of electrons               ...    28.000014112
Previous integrated no of electrons          ...    28.001220337
Total Energy       :        -1383.38261474 Eh          -37643.75472 eV
  Last Energy change         ...    4.1063e-08  Tolerance :   1.0000e-08
  Last MAX-Density change    ...    9.9593e-06  Tolerance :   1.0000e-07
             **** THE GBW FILE WAS UPDATED (37_CoH.gbw) ****
             **** DENSITY FILE WAS UPDATED (37_CoH.scfp) ****
             **** ENERGY FILE WAS UPDATED (37_CoH.en.tmp) ****
----------------------
UHF SPIN CONTAMINATION
----------------------

Warning: in a DFT calculation there is little theoretical justification to 
         calculate <S**2> as in Hartree-Fock theory. We will do it anyways
         but you should keep in mind that the values have only limited relevance

Expectation value of <S**2>     :     2.033126
Ideal value S*(S+1) for S=1.0   :     2.000000
Deviation                       :     0.033126

             **** THE GBW FILE WAS UPDATED (37_CoH.gbw) ****
             **** DENSITY FILE WAS UPDATED (37_CoH.scfp) ****
Total SCF time: 0 days 0 hours 0 min 2 sec 


-------------------------------------------------------------------------------
                          DFT DISPERSION CORRECTION                            
                                                                               
                              DFTD3 V3.1  Rev 1                                
                          USING Becke-Johnson damping                          
-------------------------------------------------------------------------------
-------------------------   ----------------
Dispersion correction           -0.000971026
-------------------------   ----------------


-------------------------   --------------------
FINAL SINGLE POINT ENERGY     -1383.383585762173
-------------------------   --------------------



           ************************************************************
           *        Program running with 24 parallel MPI-processes    *
           *              working on a common directory               *
           ************************************************************
------------------------------------------------------------------------------
                         ORCA SCF GRADIENT CALCULATION
------------------------------------------------------------------------------

Gradient of the Kohn-Sham DFT energy:
Kohn-Sham wavefunction type      ... UKS
Hartree-Fock exchange scaling    ...    0.000
Number of operators              ...    2
Number of atoms                  ...    2
Basis set dimensions             ...  116
Integral neglect threshold       ... 2.5e-11
Integral primitive cutoff        ... 2.5e-12

Nuclear repulsion gradient       ... done
One Electron Gradient            ... done
Pre-screening matrix             ... done
RI-J gradient                    ... done
Exchange-correlation gradient    ... done
Dispersion correction            ... done

------------------
CARTESIAN GRADIENT
------------------

   1   Co  :   -0.000000001   -0.000000003   -0.038828405
   2   H   :   -0.000000000    0.000000001    0.038893146

Difference to translation invariance:
           :   -0.0000000013   -0.0000000016    0.0000647403

Norm of the cartesian gradient     ...    0.0549574546
RMS gradient                       ...    0.0224362869
MAX gradient                       ...    0.0388931455

-------
TIMINGS
-------

Total SCF gradient time            ...        4.164 sec

One electron gradient       ....       0.044 sec  (  1.1%)
Prescreening matrices       ....       3.361 sec  ( 80.7%)
RI-J Coulomb gradient       ....       0.177 sec  (  4.3%)
XC gradient                 ....       0.032 sec  (  0.8%)
------------------------------------------------------------------------------
                         ORCA GEOMETRY RELAXATION STEP
------------------------------------------------------------------------------

Reading the OPT-File                    .... done
Getting information on internals        .... done
Copying old internal coords+grads       .... done
Making the new internal coordinates     .... (new redundants).... done
Validating the new internal coordinates .... (new redundants).... done
Calculating the B-matrix                .... done
Calculating the G,G- and P matrices     .... done
Transforming gradient to internals      .... done
Projecting the internal gradient        .... done
Number of atoms                         ....   2
Number of internal coordinates          ....   1
Current Energy                          .... -1383.383585762 Eh
Current gradient norm                   ....     0.054957455 Eh/bohr
Maximum allowed component of the step   ....  0.300
Current trust radius                    ....  0.300
Updating the Hessian (BFGS)             .... done
Forming the augmented Hessian           .... done
Diagonalizing the augmented Hessian     .... done
Last element of RFO vector              ....  0.768596882
Lowest eigenvalues of augmented Hessian:
 -0.032345351
Length of the computed step             ....  0.832339322
Warning: the length of the step is outside the trust region - taking restricted step instead
The input lambda is                     ....    -0.032345
   iter:   1  x=   -0.052657  g=   29.676985 f(x)=     0.602789
   iter:   2  x=   -0.077195  g=   10.042066 f(x)=     0.246411
   iter:   3  x=   -0.100108  g=    3.937739 f(x)=     0.090227
   iter:   4  x=   -0.112660  g=    2.014602 f(x)=     0.025287
   iter:   5  x=   -0.115119  g=    1.474375 f(x)=     0.003625
   iter:   6  x=   -0.115193  g=    1.391953 f(x)=     0.000103
   iter:   7  x=   -0.115193  g=    1.389578 f(x)=     0.000000
   iter:   8  x=   -0.115193  g=    1.389576 f(x)=     0.000000
   iter:   9  x=   -0.115193  g=    1.389576 f(x)=     0.000000
The output lambda is                    ....    -0.115193 (9 iterations)
The final length of the internal step   ....  0.300000000
Converting the step to cartesian space:
 Initial RMS(Int)=    0.3000000000
Transforming coordinates:
 Iter   0:  RMS(Cart)=    0.0866025404 RMS(Int)=    0.3000000000
 Iter   1:  RMS(Cart)=    0.0000000000 RMS(Int)=    0.0000000000
done
Storing new coordinates                 .... done

                                .--------------------.
          ----------------------|Geometry convergence|-------------------------
          Item                value                   Tolerance       Converged
          ---------------------------------------------------------------------
          Energy change      -0.0125086828            0.0000050000      NO
          RMS gradient        0.0388607754            0.0001000000      NO
          MAX gradient        0.0388607754            0.0003000000      NO
          RMS step            0.3000000000            0.0020000000      NO
          MAX step            0.3000000000            0.0040000000      NO
          ........................................................
          Max(Bonds)      0.1588      Max(Angles)    0.00
          Max(Dihed)        0.00      Max(Improp)    0.00
          ---------------------------------------------------------------------

The optimization has not yet converged - more geometry cycles are needed


    ---------------------------------------------------------------------------
                         Redundant Internal Coordinates
                            (Angstroem and degrees)

        Definition                    Value    dE/dq     Step     New-Value
    ----------------------------------------------------------------------------
     1. B(H   1,Co  0)                1.8412  0.038861 -0.1588    1.6825   
    ----------------------------------------------------------------------------

         *************************************************************
         *                GEOMETRY OPTIMIZATION CYCLE   3            *
         *************************************************************
---------------------------------
CARTESIAN COORDINATES (ANGSTROEM)
---------------------------------
  Co     0.000000    0.000000    0.158753
  H      0.000000    0.000000    1.841247

----------------------------
CARTESIAN COORDINATES (A.U.)
----------------------------
  NO LB      ZA    FRAG     MASS         X           Y           Z
   0 Co   27.0000    0    58.930    0.000000    0.000000    0.300000
   1 H     1.0000    0     1.008    0.000000    0.000000    3.479452

--------------------------------
INTERNAL COORDINATES (ANGSTROEM)
--------------------------------
 Co     0   0   0     0.000000000000     0.00000000     0.00000000
 H      1   0   0     1.682493675020     0.00000000     0.00000000

---------------------------
INTERNAL COORDINATES (A.U.)
---------------------------
 Co     0   0   0     0.000000000000     0.00000000     0.00000000
 H      1   0   0     3.179452267843     0.00000000     0.00000000



           ************************************************************
           *        Program running with 24 parallel MPI-processes    *
           *              working on a common directory               *
           ************************************************************
 One Electron integrals                  ... done
 Pre-screening matrix                    ... done


           ************************************************************
           *        Program running with 24 parallel MPI-processes    *
           *              working on a common directory               *
           ************************************************************

Diagonalization of the overlap matrix:
Smallest eigenvalue                        ... 9.516e-05
Time for diagonalization                   ...    0.004 sec
Threshold for overlap eigenvalues          ... 1.000e-08
Number of eigenvalues below threshold      ... 0
Time for construction of square roots      ...    0.002 sec
Total time needed                          ...    0.006 sec

-------------------
DFT GRID GENERATION
-------------------

General Integration Accuracy     IntAcc      ...  4.340
Radial Grid Type                 RadialGrid  ... Gauss-Chebyshev
Angular Grid (max. acc.)         AngularGrid ... Lebedev-110
Angular grid pruning method      GridPruning ... 3 (G Style)
Weight generation scheme         WeightScheme... Becke
Basis function cutoff            BFCut       ...    1.0000e-11
Integration weight cutoff        WCut        ...    1.0000e-14
Grids for H and He will be reduced by one unit

# of grid points (after initial pruning)     ...   3706 (   0.0 sec)
# of grid points (after weights+screening)   ...   3682 (   0.0 sec)
nearest neighbour list constructed           ...    0.0 sec
Grid point re-assignment to atoms done       ...    0.0 sec
Grid point division into batches done        ...    0.0 sec
Reduced shell lists constructed in    0.0 sec

Total number of grid points                  ...     3682
Total number of batches                      ...       58
Average number of points per batch           ...       63
Average number of grid points per atom       ...     1841
Average number of shells per batch           ...    20.25 (59.56%)
Average number of basis functions per batch  ...    56.25 (48.49%)
Average number of large shells per batch     ...    15.25 (75.31%)
Average number of large basis fcns per batch ...    43.25 (76.89%)
Maximum spatial batch extension              ...  37.20, 28.73, 20.18 au
Average spatial batch extension              ...   1.32,  1.34,  0.90 au

Time for grid setup =    0.015 sec

--------------
SCF ITERATIONS
--------------
ITER       Energy         Delta-E        Max-DP      RMS-DP      [F,P]     Damp
               ***  Starting incremental Fock matrix formation  ***
  0  -1383.3912581810   0.000000000000 0.00788905  0.00018502  0.0205473 0.7000
  1  -1383.3914912142  -0.000233033237 0.00680287  0.00015796  0.0143338 0.7000
                               ***Turning on DIIS***
  2  -1383.3916733629  -0.000182148635 0.01682938  0.00039870  0.0091174 0.0000
  3  -1383.3921083023  -0.000434939438 0.00367662  0.00005504  0.0029067 0.0000
  4  -1383.3921507222  -0.000042419888 0.00179477  0.00003084  0.0014097 0.0000
  5  -1383.3921667085  -0.000015986353 0.00161580  0.00002121  0.0010019 0.0000
  6  -1383.3921733475  -0.000006638927 0.00103634  0.00001354  0.0011525 0.0000
  7  -1383.3921791986  -0.000005851110 0.00263269  0.00003167  0.0005154 0.0000
  8  -1383.3921860742  -0.000006875611 0.00041628  0.00000616  0.0001051 0.0000
  9  -1383.3921867412  -0.000000666959 0.00011546  0.00000156  0.0000969 0.0000
 10  -1383.3921868758  -0.000000134642 0.00002128  0.00000038  0.0000150 0.0000
 11  -1383.3921869559  -0.000000080096 0.00000757  0.00000012  0.0000090 0.0000
 12  -1383.3921869132   0.000000042726 0.00000714  0.00000011  0.0000074 0.0000
                            ***DIIS convergence achieved***

               *****************************************************
               *                     SUCCESS                       *
               *           SCF CONVERGED AFTER  13 CYCLES          *
               *****************************************************

Setting up the final grid:

General Integration Accuracy     IntAcc      ...  4.670
Radial Grid Type                 RadialGrid  ... Gauss-Chebyshev
Angular Grid (max. acc.)         AngularGrid ... Lebedev-302
Angular grid pruning method      GridPruning ... 3 (G Style)
Weight generation scheme         WeightScheme... Becke
Basis function cutoff            BFCut       ...    1.0000e-11
Integration weight cutoff        WCut        ...    1.0000e-14
Grids for H and He will be reduced by one unit

# of grid points (after initial pruning)     ...  13034 (   0.0 sec)
# of grid points (after weights+screening)   ...  12998 (   0.0 sec)
nearest neighbour list constructed           ...    0.0 sec
Grid point re-assignment to atoms done       ...    0.0 sec
Grid point division into batches done        ...    0.1 sec
Reduced shell lists constructed in    0.1 sec

Total number of grid points                  ...    12998
Total number of batches                      ...      204
Average number of points per batch           ...       63
Average number of grid points per atom       ...     6499
Average number of shells per batch           ...    16.20 (47.65%)
Average number of basis functions per batch  ...    35.60 (30.69%)
Average number of large shells per batch     ...     9.40 (58.02%)
Average number of large basis fcns per batch ...    20.60 (57.87%)
Maximum spatial batch extension              ...  31.41, 28.57, 18.88 au
Average spatial batch extension              ...   1.02,  0.93,  0.73 au

Final grid set up in    0.1 sec
Final integration                            ... done (   0.1 sec)
Change in XC energy                          ...    -0.000790907
Integrated number of electrons               ...    28.000011090
Previous integrated no of electrons          ...    28.001851592
Total Energy       :        -1383.39297792 Eh          -37644.03671 eV
  Last Energy change         ...   -9.5158e-08  Tolerance :   1.0000e-08
  Last MAX-Density change    ...    6.4621e-06  Tolerance :   1.0000e-07
             **** THE GBW FILE WAS UPDATED (37_CoH.gbw) ****
             **** DENSITY FILE WAS UPDATED (37_CoH.scfp) ****
             **** ENERGY FILE WAS UPDATED (37_CoH.en.tmp) ****
----------------------
UHF SPIN CONTAMINATION
----------------------

Warning: in a DFT calculation there is little theoretical justification to 
         calculate <S**2> as in Hartree-Fock theory. We will do it anyways
         but you should keep in mind that the values have only limited relevance

Expectation value of <S**2>     :     2.024775
Ideal value S*(S+1) for S=1.0   :     2.000000
Deviation                       :     0.024775

             **** THE GBW FILE WAS UPDATED (37_CoH.gbw) ****
             **** DENSITY FILE WAS UPDATED (37_CoH.scfp) ****
Total SCF time: 0 days 0 hours 0 min 2 sec 


-------------------------------------------------------------------------------
                          DFT DISPERSION CORRECTION                            
                                                                               
                              DFTD3 V3.1  Rev 1                                
                          USING Becke-Johnson damping                          
-------------------------------------------------------------------------------
-------------------------   ----------------
Dispersion correction           -0.000712994
-------------------------   ----------------


-------------------------   --------------------
FINAL SINGLE POINT ENERGY     -1383.393690908778
-------------------------   --------------------



           ************************************************************
           *        Program running with 24 parallel MPI-processes    *
           *              working on a common directory               *
           ************************************************************
------------------------------------------------------------------------------
                         ORCA SCF GRADIENT CALCULATION
------------------------------------------------------------------------------

Gradient of the Kohn-Sham DFT energy:
Kohn-Sham wavefunction type      ... UKS
Hartree-Fock exchange scaling    ...    0.000
Number of operators              ...    2
Number of atoms                  ...    2
Basis set dimensions             ...  116
Integral neglect threshold       ... 2.5e-11
Integral primitive cutoff        ... 2.5e-12

Nuclear repulsion gradient       ... done
One Electron Gradient            ... done
Pre-screening matrix             ... done
RI-J gradient                    ... done
Exchange-correlation gradient    ... done
Dispersion correction            ... done

------------------
CARTESIAN GRADIENT
------------------

   1   Co  :   -0.000000001   -0.000000001   -0.026854055
   2   H   :   -0.000000000    0.000000000    0.026744159

Difference to translation invariance:
           :   -0.0000000011   -0.0000000009   -0.0001098963

Norm of the cartesian gradient     ...    0.0378997403
RMS gradient                       ...    0.0154725042
MAX gradient                       ...    0.0268540552

-------
TIMINGS
-------

Total SCF gradient time            ...        4.142 sec

One electron gradient       ....       0.082 sec  (  2.0%)
Prescreening matrices       ....       3.338 sec  ( 80.6%)
RI-J Coulomb gradient       ....       0.147 sec  (  3.6%)
XC gradient                 ....       0.033 sec  (  0.8%)
------------------------------------------------------------------------------
                         ORCA GEOMETRY RELAXATION STEP
------------------------------------------------------------------------------

Reading the OPT-File                    .... done
Getting information on internals        .... done
Copying old internal coords+grads       .... done
Making the new internal coordinates     .... (new redundants).... done
Validating the new internal coordinates .... (new redundants).... done
Calculating the B-matrix                .... done
Calculating the G,G- and P matrices     .... done
Transforming gradient to internals      .... done
Projecting the internal gradient        .... done
Number of atoms                         ....   2
Number of internal coordinates          ....   1
Current Energy                          .... -1383.393690909 Eh
Current gradient norm                   ....     0.037899740 Eh/bohr
Maximum allowed component of the step   ....  0.300
Current trust radius                    ....  0.300
Updating the Hessian (BFGS)             .... done
Forming the augmented Hessian           .... done
Diagonalizing the augmented Hessian     .... done
Last element of RFO vector              ....  0.894445614
Lowest eigenvalues of augmented Hessian:
 -0.013398173
[...]
  39   0.0000       0.333555         9.0765 
  40   0.0000       0.530934        14.4474 
  41   0.0000       0.559496        15.2247 
  42   0.0000       0.692881        18.8542 
  43   0.0000       0.722600        19.6629 
  44   0.0000       0.724078        19.7032 
  45   0.0000       0.800963        21.7953 
  46   0.0000       0.800963        21.7953 
  47   0.0000       0.891726        24.2651 
  48   0.0000       0.894331        24.3360 
  49   0.0000       0.894331        24.3360 
  50   0.0000       0.973942        26.5023 
  51   0.0000       0.973942        26.5023 
  52   0.0000       0.986208        26.8361 
  53   0.0000       0.986208        26.8361 
  54   0.0000       1.078563        29.3492 
  55   0.0000       1.147668        31.2296 
  56   0.0000       1.149603        31.2823 
  57   0.0000       1.183515        32.2051 
  58   0.0000       1.183515        32.2051 
  59   0.0000       1.242255        33.8035 
  60   0.0000       1.253987        34.1227 
  61   0.0000       1.426936        38.8289 
  62   0.0000       1.443295        39.2741 
  63   0.0000       1.745633        47.5011 
  64   0.0000       1.745633        47.5011 
  65   0.0000       2.217646        60.3452 
  66   0.0000       3.017808        82.1187 
  67   0.0000       3.096910        84.2712 
  68   0.0000       3.096910        84.2712 
  69   0.0000       3.120282        84.9072 
  70   0.0000       3.120282        84.9072 
  71   0.0000       3.131859        85.2222 
  72   0.0000       3.175055        86.3976 
  73   0.0000       3.189564        86.7924 
  74   0.0000       3.204828        87.2078 
  75   0.0000       3.349888        91.1551 
  76   0.0000       3.349888        91.1551 
  77   0.0000       3.637983        98.9946 
  78   0.0000       3.650229        99.3278 
  79   0.0000       3.666570        99.7724 
  80   0.0000       3.677840       100.0791 
  81   0.0000       3.677840       100.0791 
  82   0.0000       3.897540       106.0574 
  83   0.0000       3.995964       108.7357 
  84   0.0000       3.997149       108.7680 
  85   0.0000       4.010620       109.1345 
  86   0.0000       4.010620       109.1345 
  87   0.0000       4.122101       112.1681 
  88   0.0000       4.122101       112.1681 
  89   0.0000       4.155268       113.0706 
  90   0.0000       4.166129       113.3661 
  91   0.0000       4.815588       131.0388 
  92   0.0000       4.815588       131.0388 
  93   0.0000       4.968949       135.2120 
  94   0.0000       5.047142       137.3397 
  95   0.0000       5.078121       138.1827 
  96   0.0000       5.402302       147.0041 
  97   0.0000       5.416340       147.3861 
  98   0.0000       5.416340       147.3861 
  99   0.0000       6.717188       182.7840 
 100   0.0000      10.331907       281.1455 
 101   0.0000      10.331907       281.1455 
 102   0.0000      10.372593       282.2526 
 103   0.0000      10.406450       283.1739 
 104   0.0000      10.425842       283.7016 
 105   0.0000      10.425842       283.7016 
 106   0.0000      10.634492       289.3792 
 107   0.0000      11.478530       312.3467 
 108   0.0000      11.479362       312.3693 
 109   0.0000      11.504553       313.0548 
 110   0.0000      11.504553       313.0548 
 111   0.0000      11.514032       313.3127 
 112   0.0000      11.539578       314.0079 
 113   0.0000      11.718594       318.8791 
 114   0.0000      11.718594       318.8791 
 115   0.0000      12.021922       327.1331 

                 SPIN DOWN ORBITALS
  NO   OCC          E(Eh)            E(eV) 
   0   1.0000    -276.604964     -7526.8037 
   1   1.0000     -32.349770      -880.2820 
   2   1.0000     -28.013653      -762.2902 
   3   1.0000     -28.009992      -762.1906 
   4   1.0000     -28.009992      -762.1906 
   5   1.0000      -3.487270       -94.8935 
   6   1.0000      -2.193472       -59.6874 
   7   1.0000      -2.189342       -59.5750 
   8   1.0000      -2.189342       -59.5750 
   9   1.0000      -0.259587        -7.0637 
  10   1.0000      -0.142338        -3.8732 
  11   1.0000      -0.142338        -3.8732 
  12   1.0000      -0.139838        -3.8052 
  13   0.0000      -0.105409        -2.8683 
  14   0.0000      -0.072937        -1.9847 
  15   0.0000      -0.063739        -1.7344 
  16   0.0000      -0.014029        -0.3817 
  17   0.0000      -0.014029        -0.3817 
  18   0.0000       0.014036         0.3819 
  19   0.0000       0.028012         0.7622 
  20   0.0000       0.045823         1.2469 
  21   0.0000       0.045823         1.2469 
  22   0.0000       0.062465         1.6998 
  23   0.0000       0.072406         1.9703 
  24   0.0000       0.072406         1.9703 
  25   0.0000       0.076054         2.0695 
  26   0.0000       0.080080         2.1791 
  27   0.0000       0.084049         2.2871 
  28   0.0000       0.136867         3.7243 
  29   0.0000       0.184873         5.0307 
  30   0.0000       0.210591         5.7305 
  31   0.0000       0.210591         5.7305 
  32   0.0000       0.230367         6.2686 
  33   0.0000       0.263356         7.1663 
  34   0.0000       0.263356         7.1663 
  35   0.0000       0.323970         8.8157 
  36   0.0000       0.336532         9.1575 
  37   0.0000       0.337184         9.1752 
  38   0.0000       0.341173         9.2838 
  39   0.0000       0.341173         9.2838 
  40   0.0000       0.551051        14.9948 
  41   0.0000       0.558952        15.2098 
  42   0.0000       0.701682        19.0937 
  43   0.0000       0.721866        19.6430 
  44   0.0000       0.723612        19.6905 
  45   0.0000       0.826644        22.4941 
  46   0.0000       0.826644        22.4941 
  47   0.0000       0.890979        24.2448 
  48   0.0000       0.892786        24.2939 
  49   0.0000       0.892786        24.2939 
  50   0.0000       0.982625        26.7386 
  51   0.0000       0.982625        26.7386 
  52   0.0000       1.035840        28.1867 
  53   0.0000       1.035840        28.1867 
  54   0.0000       1.112171        30.2637 
  55   0.0000       1.156898        31.4808 
  56   0.0000       1.177482        32.0409 
  57   0.0000       1.201511        32.6948 
  58   0.0000       1.201511        32.6948 
  59   0.0000       1.283427        34.9238 
  60   0.0000       1.322338        35.9826 
  61   0.0000       1.443972        39.2925 
  62   0.0000       1.459527        39.7157 
  63   0.0000       1.759562        47.8801 
  64   0.0000       1.759562        47.8801 
  65   0.0000       2.234330        60.7992 
  66   0.0000       3.028768        82.4170 
  67   0.0000       3.134797        85.3022 
  68   0.0000       3.134797        85.3022 
  69   0.0000       3.180872        86.5559 
  70   0.0000       3.191694        86.8504 
  71   0.0000       3.191694        86.8504 
  72   0.0000       3.192651        86.8764 
  73   0.0000       3.218481        87.5793 
  74   0.0000       3.258002        88.6547 
  75   0.0000       3.408845        92.7594 
  76   0.0000       3.408845        92.7594 
  77   0.0000       3.645158        99.1898 
  78   0.0000       3.650856        99.3448 
  79   0.0000       3.701877       100.7332 
  80   0.0000       3.701877       100.7332 
  81   0.0000       3.710221       100.9603 
  82   0.0000       3.935718       107.0963 
  83   0.0000       4.038619       109.8964 
  84   0.0000       4.038619       109.8964 
  85   0.0000       4.066307       110.6498 
  86   0.0000       4.067790       110.6902 
  87   0.0000       4.125001       112.2470 
  88   0.0000       4.125001       112.2470 
  89   0.0000       4.175095       113.6101 
  90   0.0000       4.190331       114.0247 
  91   0.0000       4.841283       131.7380 
  92   0.0000       4.841283       131.7380 
  93   0.0000       4.997330       135.9843 
  94   0.0000       5.114503       139.1727 
  95   0.0000       5.157685       140.3477 
  96   0.0000       5.452411       148.3677 
  97   0.0000       5.452411       148.3677 
  98   0.0000       5.455829       148.4606 
  99   0.0000       6.773442       184.3147 
 100   0.0000      10.432166       283.8737 
 101   0.0000      10.443775       284.1896 
 102   0.0000      10.443775       284.1896 
 103   0.0000      10.464282       284.7476 
 104   0.0000      10.524896       286.3970 
 105   0.0000      10.524896       286.3970 
 106   0.0000      10.753762       292.6248 
 107   0.0000      11.563970       314.6716 
 108   0.0000      11.563970       314.6716 
 109   0.0000      11.569445       314.8206 
 110   0.0000      11.570447       314.8479 
 111   0.0000      11.589149       315.3568 
 112   0.0000      11.594123       315.4921 
 113   0.0000      11.797474       321.0256 
 114   0.0000      11.797474       321.0256 
 115   0.0000      12.112497       329.5978 

                    ********************************
                    * MULLIKEN POPULATION ANALYSIS *
                    ********************************

--------------------------------------------
MULLIKEN ATOMIC CHARGES AND SPIN POPULATIONS
--------------------------------------------
   0 Co:   -0.006791    2.090005
   1 H :    0.006791   -0.090005
Sum of atomic charges         :    0.0000000
Sum of atomic spin populations:    2.0000000

-----------------------------------------------------
MULLIKEN REDUCED ORBITAL CHARGES AND SPIN POPULATIONS
-----------------------------------------------------
CHARGE
  0 Cos       :     6.871968  s :     6.871968
      pz      :     4.111706  p :    12.115620
      px      :     4.001957
      py      :     4.001957
      dz2     :     1.037226  d :     8.015525
      dxz     :     1.989631
      dyz     :     1.989631
      dx2y2   :     0.999794
      dxy     :     1.999244
      f0      :     0.003271  f :     0.003584
      f+1     :     0.000029
      f-1     :     0.000029
      f+2     :     0.000058
      f-2     :     0.000131
      f+3     :     0.000034
      f-3     :     0.000034
      g0      :     0.000039  g :     0.000092
      g+1     :     0.000003
      g-1     :     0.000003
      g+2     :     0.000008
      g-2     :     0.000011
      g+3     :     0.000007
      g-3     :     0.000007
      g+4     :     0.000015
      g-4     :     0.000000
  1 H s       :     0.988020  s :     0.988020
      pz      :    -0.012332  p :     0.002820
      px      :     0.007576
      py      :     0.007576
      dz2     :     0.000087  d :     0.002369
      dxz     :     0.000763
      dyz     :     0.000763
      dx2y2   :     0.000141
      dxy     :     0.000615

SPIN
  0 Cos       :     0.350644  s :     0.350644
      pz      :    -0.019853  p :    -0.019490
      px      :     0.000181
      py      :     0.000181
      dz2     :     0.753497  d :     1.759178
      dxz     :     0.002700
      dyz     :     0.002700
      dx2y2   :     0.999794
      dxy     :     0.000486
      f0      :    -0.000410  f :    -0.000382
      f+1     :     0.000002
      f-1     :     0.000002
      f+2     :     0.000058
      f-2     :    -0.000003
      f+3     :    -0.000015
      f-3     :    -0.000015
      g0      :     0.000072  g :     0.000055
      g+1     :    -0.000005
      g-1     :    -0.000005
      g+2     :     0.000008
      g-2     :    -0.000006
      g+3     :    -0.000004
      g-3     :    -0.000004
      g+4     :     0.000000
      g-4     :    -0.000000
  1 H s       :    -0.083037  s :    -0.083037
      pz      :    -0.001151  p :    -0.005972
      px      :    -0.002410
      py      :    -0.002410
      dz2     :     0.000238  d :    -0.000996
      dxz     :    -0.000449
      dyz     :    -0.000449
      dx2y2   :     0.000141
      dxy     :    -0.000477


                     *******************************
                     * LOEWDIN POPULATION ANALYSIS *
                     *******************************

-------------------------------------------
LOEWDIN ATOMIC CHARGES AND SPIN POPULATIONS
-------------------------------------------
   0 Co:    0.611912    1.989165
   1 H :   -0.611912    0.010835

----------------------------------------------------
LOEWDIN REDUCED ORBITAL CHARGES AND SPIN POPULATIONS
----------------------------------------------------
CHARGE
  0 Cos       :     6.547250  s :     6.547250
      pz      :     4.062815  p :    11.990972
      px      :     3.964079
      py      :     3.964079
      dz2     :     1.038831  d :     7.829391
      dxz     :     1.904786
      dyz     :     1.904786
      dx2y2   :     0.994366
      dxy     :     1.986622
      f0      :     0.014588  f :     0.019702
      f+1     :     0.002169
      f-1     :     0.002169
      f+2     :     0.000214
      f-2     :     0.000494
      f+3     :     0.000034
      f-3     :     0.000034
      g0      :     0.000503  g :     0.000774
      g+1     :     0.000107
      g-1     :     0.000107
      g+2     :     0.000015
      g-2     :     0.000012
      g+3     :     0.000007
      g-3     :     0.000007
      g+4     :     0.000015
      g-4     :     0.000000
  1 H s       :     1.027556  s :     1.027556
      pz      :     0.180375  p :     0.302749
      px      :     0.061187
      py      :     0.061187
      dz2     :     0.128067  d :     0.281607
      dxz     :     0.067631
      dyz     :     0.067631
      dx2y2   :     0.005405
      dxy     :     0.012872

SPIN
  0 Cos       :     0.303362  s :     0.303362
      pz      :    -0.033646  p :    -0.033032
      px      :     0.000307
      py      :     0.000307
      dz2     :     0.718580  d :     1.720568
      dxz     :     0.003624
      dyz     :     0.003624
      dx2y2   :     0.994366
      dxy     :     0.000374
      f0      :    -0.002065  f :    -0.001828
      f+1     :     0.000029
      f-1     :     0.000029
      f+2     :     0.000214
      f-2     :    -0.000005
      f+3     :    -0.000015
      f-3     :    -0.000015
      g0      :     0.000028  g :     0.000095
      g+1     :     0.000027
      g-1     :     0.000027
      g+2     :     0.000015
      g-2     :     0.000006
      g+3     :    -0.000004
      g-3     :    -0.000004
      g+4     :     0.000000
      g-4     :    -0.000000
  1 H s       :    -0.016570  s :    -0.016570
      pz      :     0.027245  p :     0.020168
      px      :    -0.003539
      py      :    -0.003539
      dz2     :     0.003066  d :     0.007237
      dxz     :    -0.000429
      dyz     :    -0.000429
      dx2y2   :     0.005405
      dxy     :    -0.000375


                      *****************************
                      * MAYER POPULATION ANALYSIS *
                      *****************************

  NA   - Mulliken gross atomic population
  ZA   - Total nuclear charge
  QA   - Mulliken gross atomic charge
  VA   - Mayer's total valence
  BVA  - Mayer's bonded valence
  FA   - Mayer's free valence

  ATOM       NA         ZA         QA         VA         BVA        FA
  0 Co    27.0068    27.0000    -0.0068     3.0044     1.0448     1.9596
  1 H      0.9932     1.0000     0.0068     1.0564     1.0448     0.0117

  Mayer bond orders larger than 0.100000
B(  0-Co,  1-H ) :   1.0448 

-------
TIMINGS
-------

Total SCF time: 0 days 0 hours 0 min 0 sec 

Total time                  ....       0.625 sec
Sum of individual times     ....       0.474 sec  ( 75.7%)

Fock matrix formation       ....       0.359 sec  ( 57.4%)
  Split-RI-J                ....       0.234 sec  ( 65.2% of F)
  XC integration            ....       0.046 sec  ( 12.9% of F)
    Basis function eval.    ....       0.006 sec  ( 13.3% of XC)
    Density eval.           ....       0.007 sec  ( 14.5% of XC)
    XC-Functional eval.     ....       0.002 sec  (  4.2% of XC)
    XC-Potential eval.      ....       0.017 sec  ( 37.6% of XC)
Diagonalization             ....       0.007 sec  (  1.1%)
Density matrix formation    ....       0.002 sec  (  0.3%)
Population analysis         ....       0.006 sec  (  1.0%)
Initial guess               ....       0.009 sec  (  1.5%)
Orbital Transformation      ....       0.000 sec  (  0.0%)
Orbital Orthonormalization  ....       0.005 sec  (  0.8%)
DIIS solution               ....       0.001 sec  (  0.1%)
Grid generation             ....       0.090 sec  ( 14.4%)


-------------------------------------------------------------------------------
                          DFT DISPERSION CORRECTION                            
                                                                               
                              DFTD3 V3.1  Rev 1                                
                          USING Becke-Johnson damping                          
-------------------------------------------------------------------------------
The TPSS functional is recognized
Active option DFTDOPT                   ...         4   

molecular C6(AA) [au] = 320.885859 


            DFT-D V3
 parameters
 s6 scaling factor         :     1.0000 
 a1 scaling factor         :     0.4535 
 s8 scaling factor         :     1.9435 
 a2 scaling factor         :     4.4752 
 ad hoc parameters k1-k3   :    16.0000     1.3333    -4.0000 

 Edisp/kcal,au: -0.313917904362  -0.000500259970 
 E6   /kcal   :  -0.138025168 
 E8   /kcal   :  -0.175892736 
 % E8         :  56.031444452 

-------------------------   ----------------
Dispersion correction           -0.000500260
-------------------------   ----------------


-------------------------   --------------------
FINAL SINGLE POINT ENERGY     -1383.398294764169
-------------------------   --------------------

                                *** OPTIMIZATION RUN DONE ***

                            ***************************************
                            *     ORCA property calculations      *
                            ***************************************

                                    ---------------------
                                    Active property flags
                                    ---------------------
   (+) Dipole Moment


------------------------------------------------------------------------------
                       ORCA ELECTRIC PROPERTIES CALCULATION
------------------------------------------------------------------------------

Dipole Moment Calculation                       ... on
Quadrupole Moment Calculation                   ... off
Polarizability Calculation                      ... off
GBWName                                         ... 37_CoH.gbw
Electron density file                           ... 37_CoH.scfp
The origin for moment calculation is the CENTER OF MASS  = ( 0.000000,  0.000000  0.501200)

-------------
DIPOLE MOMENT
-------------
                                X             Y             Z
Electronic contribution:     -0.00000       0.00000      -2.55782
Nuclear contribution   :      0.00000       0.00000       1.52052
                        -----------------------------------------
Total Dipole Moment    :     -0.00000       0.00000      -1.03731
                        -----------------------------------------
Magnitude (a.u.)       :      1.03731
Magnitude (Debye)      :      2.63663



--------------------
Rotational spectrum 
--------------------
 
Rotational constants in cm-1:     0.000000     7.355540     7.355540 
Rotational constants in MHz :     0.000000 220513.537195 220513.537195 

 Dipole components along the rotational axes: 
x,y,z [a.u.] :    -1.037307     0.000000    -0.000000 
x,y,z [Debye]:    -2.636625     0.000000    -0.000000 

 

Timings for individual modules:

Sum of individual times         ...       63.741 sec (=   1.062 min)
GTO integral calculation        ...       17.624 sec (=   0.294 min)  27.6 %
SCF iterations                  ...       18.678 sec (=   0.311 min)  29.3 %
SCF Gradient evaluation         ...       27.249 sec (=   0.454 min)  42.7 %
Geometry relaxation             ...        0.190 sec (=   0.003 min)   0.3 %
                             ****ORCA TERMINATED NORMALLY****
TOTAL RUN TIME: 0 days 0 hours 1 minutes 4 seconds 675 msec
