
                                 *****************
                                 * O   R   C   A *
                                 *****************

           --- An Ab Initio, DFT and Semiempirical electronic structure package ---

                  #######################################################
                  #                        -***-                        #
                  #          Department of theory and spectroscopy      #
                  #               Directorship: Frank Neese             #
                  #        Max Planck Institute fuer Kohlenforschung    #
                  #                Kaiser Wilhelm Platz 1               #
                  #                 D-45470 Muelheim/Ruhr               #
                  #                      Germany                        #
                  #                                                     #
                  #                  All rights reserved                #
                  #                        -***-                        #
                  #######################################################


                         Program Version 4.2.0 -  RELEASE  -


 With contributions from (in alphabetic order):
   Daniel Aravena         : Magnetic Suceptibility
   Michael Atanasov       : Ab Initio Ligand Field Theory (pilot matlab implementation)
   Alexander A. Auer      : GIAO ZORA, VPT2
   Ute Becker             : Parallelization
   Giovanni Bistoni       : ED, misc. LED, open-shell LED, HFLED
   Martin Brehm           : Molecular dynamics
   Dmytro Bykov           : SCF Hessian
   Vijay G. Chilkuri      : MRCI spin determinant printing, contributions to CSF-ICE
   Dipayan Datta          : RHF DLPNO-CCSD density
   Achintya Kumar Dutta   : EOM-CC, STEOM-CC
   Dmitry Ganyushin       : Spin-Orbit,Spin-Spin,Magnetic field MRCI
   Miquel Garcia          : C-PCM Hessian, Gaussian charge scheme
   Yang Guo               : DLPNO-NEVPT2, CIM, IAO-localization
   Andreas Hansen         : Spin unrestricted coupled pair/coupled cluster methods
   Benjamin Helmich-Paris : CASSCF linear response (MC-RPA)
   Lee Huntington         : MR-EOM, pCC
   Robert Izsak           : Overlap fitted RIJCOSX, COSX-SCS-MP3, EOM
   Christian Kollmar      : KDIIS, OOCD, Brueckner-CCSD(T), CCSD density
   Simone Kossmann        : Meta GGA functionals, TD-DFT gradient, OOMP2, MP2 Hessian
   Martin Krupicka        : AUTO-CI
   Lucas Lang             : DCDCAS
   Dagmar Lenk            : GEPOL surface, SMD
   Dimitrios Liakos       : Extrapolation schemes; Compound Job, initial MDCI parallelization
   Dimitrios Manganas     : Further ROCIS development; embedding schemes
   Dimitrios Pantazis     : SARC Basis sets
   Taras Petrenko         : DFT Hessian,TD-DFT gradient, ASA, ECA, R-Raman, ABS, FL, XAS/XES, NRVS
   Peter Pinski           : DLPNO-MP2, DLPNO-MP2 Gradient
   Christoph Reimann      : Effective Core Potentials
   Marius Retegan         : Local ZFS, SOC
   Christoph Riplinger    : Optimizer, TS searches, QM/MM, DLPNO-CCSD(T), (RO)-DLPNO pert. Triples
   Tobias Risthaus        : Range-separated hybrids, TD-DFT gradient, RPA, STAB
   Michael Roemelt        : Original ROCIS implementation
   Masaaki Saitow         : Open-shell DLPNO-CCSD energy and density
   Barbara Sandhoefer     : DKH picture change effects
   Avijit Sen             : IP-ROCIS
   Kantharuban Sivalingam : CASSCF convergence, NEVPT2, FIC-MRCI
   Bernardo de Souza      : ESD, SOC TD-DFT
   Georgi Stoychev        : AutoAux, RI-MP2 NMR
   Willem Van den Heuvel  : Paramagnetic NMR
   Boris Wezisla          : Elementary symmetry handling
   Frank Wennmohs         : Technical directorship


 We gratefully acknowledge several colleagues who have allowed us to
 interface, adapt or use parts of their codes:
   Stefan Grimme, W. Hujo, H. Kruse,             : VdW corrections, initial TS optimization,
                  C. Bannwarth                     DFT functionals, gCP, sTDA/sTD-DF
   Ed Valeev, F. Pavosevic, A. Kumar             : LibInt (2-el integral package), F12 methods
   Garnet Chan, S. Sharma, J. Yang, R. Olivares  : DMRG
   Ulf Ekstrom                                   : XCFun DFT Library
   Mihaly Kallay                                 : mrcc  (arbitrary order and MRCC methods)
   Andreas Klamt, Michael Diedenhofen            : otool_cosmo (COSMO solvation model)
   Jiri Pittner, Ondrej Demel                    : Mk-CCSD
   Frank Weinhold                                : gennbo (NPA and NBO analysis)
   Christopher J. Cramer and Donald G. Truhlar   : smd solvation model
   Lars Goerigk                                  : TD-DFT with DH, B97 family of functionals
   V. Asgeirsson, H. Jonsson                     : NEB implementation
   FAccTs GmbH                                   : IRC, NEB, NEB-TS, Multilevel, MM, QM/MM, CI optimization
   S Lehtola, MJT Oliveira, MAL Marques          : LibXC Library


 Your calculation uses the libint2 library for the computation of 2-el integrals
 For citations please refer to: http://libint.valeyev.net

 Your ORCA version has been built with support for libXC version: 4.2.3
 For citations please refer to: https://tddft.org/programs/libxc/

 This ORCA versions uses:
   CBLAS   interface :  Fast vector & matrix operations
   LAPACKE interface :  Fast linear algebra routines
   SCALAPACK package :  Parallel linear algebra routines


Your calculation utilizes the atom-pairwise dispersion correction
with the Becke-Johnson damping scheme (D3BJ)
Cite in your paper:
S.Grimme, S.Ehrlich, L.Goerigk, J Comput Chem, (2011), 32, 1456–1465 
S.Grimme, J.Antony, S.Ehrlich and H.Krieg, J.Chem.Phys., 132, (2010), 154104 
   

----- Orbital basis set information -----
Your calculation utilizes the basis: aug-cc-pVTZ 
    H, B-Ne : Obtained from the ccRepo (grant-hill.group.shef.ac.uk/ccrepo) Feb. 2017
              R. A. Kendall, T. H. Dunning, Jr., R. J. Harrison, J. Chem. Phys. 96, 6796 (1992)
         He : Obtained from the ccRepo (grant-hill.group.shef.ac.uk/ccrepo) Feb. 2017
              D. E. Woon, T. H. Dunning, Jr., J. Chem. Phys. 100, 2975 (1994)
  Li-Be, Na : Obtained from the ccRepo (grant-hill.group.shef.ac.uk/ccrepo) Feb. 2017
              B. P. Prascher, D. E. Woon, K. A. Peterson, T. H. Dunning, Jr., A. K. Wilson, Theor. Chem. Acc. 128, 69 (2011)
         Mg : Obtained from the Peterson Research Group Website (tyr0.chem.wsu.edu/~kipeters) Feb. 2017
              B. P. Prascher, D. E. Woon, K. A. Peterson, T. H. Dunning, Jr., A. K. Wilson, Theor. Chem. Acc. 128, 69 (2011)
      Al-Ar : Obtained from the ccRepo (grant-hill.group.shef.ac.uk/ccrepo) Feb. 2017
              D. E. Woon, T. H. Dunning, Jr., J. Chem. Phys. 98, 1358 (1993)
      Sc-Zn : Obtained from the ccRepo (grant-hill.group.shef.ac.uk/ccrepo) Feb. 2017
              N. B. Balabanov, K. A. Peterson, J. Chem. Phys. 123, 064107 (2005)
              N. B. Balabanov, K. A. Peterson, J. Chem. Phys. 125, 074110 (2006)
      Ga-Kr : Obtained from the ccRepo (grant-hill.group.shef.ac.uk/ccrepo) Feb. 2017
              A. K. Wilson, D. E. Woon, K. A. Peterson, T. H. Dunning, Jr., J. Chem. Phys. 110, 7667 (1999)
     Ag, Au : Obtained from the Peterson Research Group Website (tyr0.chem.wsu.edu/~kipeters) Feb. 2017
              K. A. Peterson, C. Puzzarini, Theor. Chem. Acc. 114, 283 (2005)

----- AuxJ basis set information -----
Your calculation utilizes the auxiliary basis: def2/J
   F. Weigend, Phys. Chem. Chem. Phys. 8, 1057 (2006).

================================================================================
                                        WARNINGS
                       Please study these warnings very carefully!
================================================================================


WARNING: your system is open-shell and RHF/RKS was chosen
  ===> : WILL SWITCH to UHF/UKS


WARNING: Geometry Optimization
  ===> : Switching off AutoStart
         For restart on a previous wavefunction, please use MOREAD

INFO   : the flag for use of LIBINT has been found!

================================================================================
                                       INPUT FILE
================================================================================
NAME = 39_CoCl.in
|  1> #
|  2> # 39_CoCl tpss/aug-cc-pvtz
|  3> #
|  4> ! tpss d3bj aug-cc-pvtz def2/j opt xyzfile
|  5> 
|  6> *xyz 0 3
|  7> Co 0.0 0.0 0.0
|  8> Cl 0.0 0.0 2.0
|  9> *
| 10> 
| 11> %pal
| 12> nprocs 24
| 13> end
| 14> 
| 15> 
| 16>                          ****END OF INPUT****
================================================================================

                       *****************************
                       * Geometry Optimization Run *
                       *****************************

Geometry optimization settings:
Update method            Update   .... BFGS
Choice of coordinates    CoordSys .... Z-matrix Internals
Initial Hessian          InHess   .... Almoef's Model

Convergence Tolerances:
Energy Change            TolE     ....  5.0000e-06 Eh
Max. Gradient            TolMAXG  ....  3.0000e-04 Eh/bohr
RMS Gradient             TolRMSG  ....  1.0000e-04 Eh/bohr
Max. Displacement        TolMAXD  ....  4.0000e-03 bohr
RMS Displacement         TolRMSD  ....  2.0000e-03 bohr
Strict Convergence                ....  False
------------------------------------------------------------------------------
                        ORCA OPTIMIZATION COORDINATE SETUP
------------------------------------------------------------------------------

The optimization will be done in new redundant internal coordinates
Making redundant internal coordinates   ...  (new redundants) done
Evaluating the initial hessian          ...  (Almloef) done
Evaluating the coordinates              ...  done
Calculating the B-matrix                .... done
Calculating the G-matrix                .... done
Diagonalizing the G-matrix              .... done
The first mode is                       ....    0
The number of degrees of freedom        ....    1

    -----------------------------------------------------------------
                    Redundant Internal Coordinates


    -----------------------------------------------------------------
         Definition                    Initial Value    Approx d2E/dq
    -----------------------------------------------------------------
      1. B(Cl  1,Co  0)                  2.0000         1.508840   
    -----------------------------------------------------------------

Number of atoms                         .... 2
Number of degrees of freedom            .... 1

         *************************************************************
         *                GEOMETRY OPTIMIZATION CYCLE   1            *
         *************************************************************
---------------------------------
CARTESIAN COORDINATES (ANGSTROEM)
---------------------------------
  Co     0.000000    0.000000    0.000000
  Cl     0.000000    0.000000    2.000000

----------------------------
CARTESIAN COORDINATES (A.U.)
----------------------------
  NO LB      ZA    FRAG     MASS         X           Y           Z
   0 Co   27.0000    0    58.930    0.000000    0.000000    0.000000
   1 Cl   17.0000    0    35.453    0.000000    0.000000    3.779452

--------------------------------
INTERNAL COORDINATES (ANGSTROEM)
--------------------------------
 Co     0   0   0     0.000000000000     0.00000000     0.00000000
 Cl     1   0   0     2.000000000000     0.00000000     0.00000000

---------------------------
INTERNAL COORDINATES (A.U.)
---------------------------
 Co     0   0   0     0.000000000000     0.00000000     0.00000000
 Cl     1   0   0     3.779452267843     0.00000000     0.00000000

---------------------
BASIS SET INFORMATION
---------------------
There are 2 groups of distinct atoms

 Group   1 Type Co  : 116s77p23d3f2g contracted to 8s7p5d3f2g pattern {19191919191911/151515151511/77711/111/11}
 Group   2 Type Cl  : 42s17p3d2f contracted to 6s5p3d2f pattern {131313111/77111/111/11}

Atom   0Co   basis set group =>   1
Atom   1Cl   basis set group =>   2
---------------------------------
AUXILIARY/J BASIS SET INFORMATION
---------------------------------
There are 2 groups of distinct atoms

 Group   1 Type Co  : 19s5p5d3f3g contracted to 8s5p5d2f3g pattern {121111111/11111/11111/21/111}
 Group   2 Type Cl  : 14s5p5d2f1g contracted to 8s4p3d1f1g pattern {71111111/2111/311/2/1}

Atom   0Co   basis set group =>   1
Atom   1Cl   basis set group =>   2


           ************************************************************
           *        Program running with 24 parallel MPI-processes    *
           *              working on a common directory               *
           ************************************************************
------------------------------------------------------------------------------
                           ORCA GTO INTEGRAL CALCULATION
                           -- RI-GTO INTEGRALS CHOSEN --
------------------------------------------------------------------------------

                         BASIS SET STATISTICS AND STARTUP INFO

Gaussian basis set:
 # of primitive gaussian shells          ...  285
 # of primitive gaussian functions       ...  623
 # of contracted shells                  ...   41
 # of contracted basis functions         ...  143
 Highest angular momentum                ...    4
 Maximum contraction depth               ...   19
Auxiliary gaussian basis set:
 # of primitive gaussian shells          ...   62
 # of primitive gaussian functions       ...  184
 # of contracted shells                  ...   40
 # of contracted aux-basis functions     ...  140
 Highest angular momentum                ...    4
 Maximum contraction depth               ...   12
Ratio of auxiliary to basis functions    ...  0.98
Integral package used                  ... LIBINT
 One Electron integrals                  ... done
 Ordering auxiliary basis shells         ... done
 Integral threshhold             Thresh  ...  2.500e-11
 Primitive cut-off               TCut    ...  2.500e-12
 Pre-screening matrix                    ... done
 Shell pair data                         ... 
 Ordering of the shell pairs             ... done (   0.000 sec) 861 of 861 pairs
 Determination of significant pairs      ... done (   0.000 sec)
 Creation of shell pair data             ... done (   0.001 sec)
 Storage of shell pair data              ... done (   0.026 sec)
 Shell pair data done in (   0.027 sec)
 Computing two index integrals           ... done
 Cholesky decomposition of the V-matrix  ... done


Timings:
 Total evaluation time                   ...   2.596 sec (  0.043 min)
 One electron matrix time                ...   0.046 sec (  0.001 min) =  1.8%
 Schwartz matrix evaluation time         ...   2.497 sec (  0.042 min) = 96.2%
 Two index repulsion integral time       ...   0.001 sec (  0.000 min) =  0.0%
 Cholesky decomposition of V             ...   0.001 sec (  0.000 min) =  0.0%
 Three index repulsion integral time     ...   0.000 sec (  0.000 min) =  0.0%



           ************************************************************
           *        Program running with 24 parallel MPI-processes    *
           *              working on a common directory               *
           ************************************************************
-------------------------------------------------------------------------------
                                 ORCA SCF
-------------------------------------------------------------------------------

------------
SCF SETTINGS
------------
Hamiltonian:
 Density Functional     Method          .... DFT(GTOs)
 Exchange Functional    Exchange        .... TPSS
 Correlation Functional Correlation     .... TPSS
 LDA part of GGA corr.  LDAOpt          .... PW91-LDA
 Gradients option       PostSCFGGA      .... off
   Density functional embedding theory  .... OFF
   NL short-range parameter             ....  5.000000
 RI-approximation to the Coulomb term is turned on
   Number of auxiliary basis functions  .... 140


General Settings:
 Integral files         IntName         .... 39_CoCl
 Hartree-Fock type      HFTyp           .... UHF
 Total Charge           Charge          ....    0
 Multiplicity           Mult            ....    3
 Number of Electrons    NEL             ....   44
 Basis Dimension        Dim             ....  143
 Nuclear Repulsion      ENuc            ....    121.4461693049 Eh

Convergence Acceleration:
 DIIS                   CNVDIIS         .... on
   Start iteration      DIISMaxIt       ....    12
   Startup error        DIISStart       ....  0.200000
   # of expansion vecs  DIISMaxEq       ....     5
   Bias factor          DIISBfac        ....   1.050
   Max. coefficient     DIISMaxC        ....  10.000
 Newton-Raphson         CNVNR           .... off
 SOSCF                  CNVSOSCF        .... off
 Level Shifting         CNVShift        .... on
   Level shift para.    LevelShift      ....    0.2500
   Turn off err/grad.   ShiftErr        ....    0.0010
 Zerner damping         CNVZerner       .... off
 Static damping         CNVDamp         .... on
   Fraction old density DampFac         ....    0.7000
   Max. Damping (<1)    DampMax         ....    0.9800
   Min. Damping (>=0)   DampMin         ....    0.0000
   Turn off err/grad.   DampErr         ....    0.1000
 Fernandez-Rico         CNVRico         .... off

SCF Procedure:
 Maximum # iterations   MaxIter         ....   125
 SCF integral mode      SCFMode         .... Direct
   Integral package                     .... LIBINT
 Reset frequency        DirectResetFreq ....    20
 Integral Threshold     Thresh          ....  2.500e-11 Eh
 Primitive CutOff       TCut            ....  2.500e-12 Eh

Convergence Tolerance:
 Convergence Check Mode ConvCheckMode   .... Total+1el-Energy
 Convergence forced     ConvForced      .... 0
 Energy Change          TolE            ....  1.000e-08 Eh
 1-El. energy change                    ....  1.000e-05 Eh
 DIIS Error             TolErr          ....  5.000e-07


Diagonalization of the overlap matrix:
Smallest eigenvalue                        ... 1.242e-04
Time for diagonalization                   ...    0.004 sec
Threshold for overlap eigenvalues          ... 1.000e-08
Number of eigenvalues below threshold      ... 0
Time for construction of square roots      ...    0.003 sec
Total time needed                          ...    0.007 sec

-------------------
DFT GRID GENERATION
-------------------

General Integration Accuracy     IntAcc      ...  4.340
Radial Grid Type                 RadialGrid  ... Gauss-Chebyshev
Angular Grid (max. acc.)         AngularGrid ... Lebedev-110
Angular grid pruning method      GridPruning ... 3 (G Style)
Weight generation scheme         WeightScheme... Becke
Basis function cutoff            BFCut       ...    1.0000e-11
Integration weight cutoff        WCut        ...    1.0000e-14
Grids for H and He will be reduced by one unit

# of grid points (after initial pruning)     ...   4756 (   0.0 sec)
# of grid points (after weights+screening)   ...   4731 (   0.0 sec)
nearest neighbour list constructed           ...    0.0 sec
Grid point re-assignment to atoms done       ...    0.0 sec
Grid point division into batches done        ...    0.0 sec
Reduced shell lists constructed in    0.0 sec

Total number of grid points                  ...     4731
Total number of batches                      ...       75
Average number of points per batch           ...       63
Average number of grid points per atom       ...     2366
Average number of shells per batch           ...    23.20 (56.59%)
Average number of basis functions per batch  ...    71.20 (49.79%)
Average number of large shells per batch     ...    16.00 (68.97%)
Average number of large basis fcns per batch ...    42.40 (59.55%)
Maximum spatial batch extension              ...  18.98, 28.73, 16.15 au
Average spatial batch extension              ...   0.95,  1.29,  0.86 au

Time for grid setup =    0.027 sec

------------------------------
INITIAL GUESS: MODEL POTENTIAL
------------------------------
Loading Hartree-Fock densities                     ... done
Calculating cut-offs                               ... done
Setting up the integral package                    ... done
Initializing the effective Hamiltonian             ... done
Starting the Coulomb interaction                   ... done (   0.0 sec)
Reading the grid                                   ... done
Mapping shells                                     ... done
Starting the XC term evaluation                    ... done (   0.0 sec)
  promolecular density results
     # of electrons  =     43.999963178
     EX              =    -85.140470111
     EC              =     -1.877543040
     EX+EC           =    -87.018013151
Transforming the Hamiltonian                       ... done (   0.0 sec)
Diagonalizing the Hamiltonian                      ... done (   0.0 sec)
Back transforming the eigenvectors                 ... done (   0.0 sec)
Now organizing SCF variables                       ... done
                      ------------------
                      INITIAL GUESS DONE (   0.2 sec)
                      ------------------
--------------
SCF ITERATIONS
--------------
ITER       Energy         Delta-E        Max-DP      RMS-DP      [F,P]     Damp
               ***  Starting incremental Fock matrix formation  ***
  0  -1842.9497833918   0.000000000000 0.07820076  0.00139488  0.3771533 0.7000
  1  -1842.9965836995  -0.046800307771 0.03736810  0.00062334  0.0880584 0.7000
                               ***Turning on DIIS***
  2  -1843.0189665547  -0.022382855180 0.14515703  0.00145280  0.0795139 0.0000
  3  -1843.0528362741  -0.033869719439 0.01655829  0.00026227  0.2037281 0.7000
  4  -1843.0651913891  -0.012355114918 0.02534627  0.00026374  0.1566797 0.7000
  5  -1843.0755703888  -0.010378999707 0.02891801  0.00027688  0.1123849 0.7000
  6  -1843.0831260006  -0.007555611837 0.11821847  0.00097345  0.0764121 0.0000
  7  -1843.0978202449  -0.014694244305 0.05543529  0.00040820  0.0182868 0.0000
  8  -1843.1012759293  -0.003455684372 0.05829173  0.00039815  0.0146146 0.0000
  9  -1843.1040629196  -0.002786990291 0.05616832  0.00037653  0.0135109 0.0000
 10  -1843.1064346881  -0.002371768479 0.05649440  0.00038220  0.0123996 0.0000
 11  -1843.1084848428  -0.002050154784 0.04546736  0.00029454  0.0114776 0.0000
 12  -1843.1098837345  -0.001398891678 0.04357364  0.00029630  0.0096825 0.0000
 13  -1843.1110245232  -0.001140788730 0.03520500  0.00023138  0.0087636 0.0000
 14  -1843.1118480818  -0.000823558549 0.03001527  0.00019926  0.0072703 0.0000
 15  -1843.1124287973  -0.000580715528 0.02475864  0.00016697  0.0062226 0.0000
 16  -1843.1128130477  -0.000384250412 0.01868512  0.00012559  0.0073386 0.0000
 17  -1843.1131197708  -0.000306723086 0.01592179  0.00010966  0.0040794 0.0000
 18  -1843.1132918716  -0.000172100772 0.01319190  0.00009077  0.0043386 0.0000
 19  -1843.1134179992  -0.000126127570 0.01001695  0.00006864  0.0047718 0.0000
               *** Restarting incremental Fock matrix formation ***
                                   *** Resetting DIIS ***
 20  -1843.1135208068  -0.000102807587 0.00787665  0.00005427  0.0022768 0.0000
 21  -1843.1135717729  -0.000050966195 0.00601497  0.00004288  0.0033246 0.0000
 22  -1843.1136120747  -0.000040301733 0.00488557  0.00003466  0.0018336 0.0000
 23  -1843.1136382385  -0.000026163858 0.00433603  0.00003181  0.0018727 0.0000
 24  -1843.1136609873  -0.000022748802 0.00391143  0.00002965  0.0011603 0.0000
 25  -1843.1136762336  -0.000015246241 0.00295065  0.00002137  0.0010001 0.0000
 26  -1843.1136865509  -0.000010317309 0.01460301  0.00010566  0.0008044 0.0000
 27  -1843.1137091059  -0.000022555024 0.00021887  0.00000371  0.0024602 0.0000
 28  -1843.1137126472  -0.000003541322 0.00025257  0.00000371  0.0014728 0.0000
 29  -1843.1137144979  -0.000001850714 0.00091678  0.00001064  0.0007632 0.0000
 30  -1843.1137156459  -0.000001147969 0.00077842  0.00000865  0.0003463 0.0000
 31  -1843.1137160843  -0.000000438429 0.00034180  0.00000388  0.0001148 0.0000
 32  -1843.1137159043   0.000000180022 0.00012451  0.00000143  0.0001790 0.0000
 33  -1843.1137160284  -0.000000124066 0.00015614  0.00000225  0.0000485 0.0000
 34  -1843.1137159586   0.000000069801 0.00005374  0.00000057  0.0000053 0.0000
 35  -1843.1137159190   0.000000039556 0.00003052  0.00000035  0.0000042 0.0000
 36  -1843.1137159478  -0.000000028811 0.00001108  0.00000014  0.0000044 0.0000
 37  -1843.1137159471   0.000000000725 0.00003112  0.00000037  0.0000014 0.0000
 38  -1843.1137159084   0.000000038716 0.00001510  0.00000018  0.0000013 0.0000
                            ***DIIS convergence achieved***

               *****************************************************
               *                     SUCCESS                       *
               *           SCF CONVERGED AFTER  39 CYCLES          *
               *****************************************************

Setting up the final grid:

General Integration Accuracy     IntAcc      ...  4.670
Radial Grid Type                 RadialGrid  ... Gauss-Chebyshev
Angular Grid (max. acc.)         AngularGrid ... Lebedev-302
Angular grid pruning method      GridPruning ... 3 (G Style)
Weight generation scheme         WeightScheme... Becke
Basis function cutoff            BFCut       ...    1.0000e-11
Integration weight cutoff        WCut        ...    1.0000e-14
Grids for H and He will be reduced by one unit

# of grid points (after initial pruning)     ...  16378 (   0.0 sec)
# of grid points (after weights+screening)   ...  16349 (   0.0 sec)
nearest neighbour list constructed           ...    0.0 sec
Grid point re-assignment to atoms done       ...    0.0 sec
Grid point division into batches done        ...    0.1 sec
Reduced shell lists constructed in    0.1 sec

Total number of grid points                  ...    16349
Total number of batches                      ...      256
Average number of points per batch           ...       63
Average number of grid points per atom       ...     8174
Average number of shells per batch           ...    15.33 (37.40%)
Average number of basis functions per batch  ...    35.50 (24.83%)
Average number of large shells per batch     ...     8.33 (54.35%)
Average number of large basis fcns per batch ...    19.83 (55.87%)
Maximum spatial batch extension              ...  24.49, 24.19, 17.58 au
Average spatial batch extension              ...   0.85,  0.84,  0.65 au

Final grid set up in    0.1 sec
Final integration                            ... done (   0.1 sec)
Change in XC energy                          ...    -0.001228332
Integrated number of electrons               ...    44.000017066
Previous integrated no of electrons          ...    43.999971537

----------------
TOTAL SCF ENERGY
----------------

Total Energy       :        -1843.11494416 Eh          -50153.70740 eV

Components:
Nuclear Repulsion  :          121.44616930 Eh            3304.71828 eV
Electronic Energy  :        -1964.56111346 Eh          -53458.42567 eV
One Electron Energy:        -2795.01259294 Eh          -76056.15927 eV
Two Electron Energy:          830.45147948 Eh           22597.73360 eV

Virial components:
Potential Energy   :        -3683.01193422 Eh         -100219.84981 eV
Kinetic Energy     :         1839.89699007 Eh           50066.14241 eV
Virial Ratio       :            2.00174899


DFT components:
N(Alpha)           :       23.000008630802 electrons
N(Beta)            :       21.000008435157 electrons
N(Total)           :       44.000017065959 electrons
E(X)               :      -85.823971922329 Eh       
E(C)               :       -1.890160814080 Eh       
E(XC)              :      -87.714132736409 Eh       
DFET-embed. en.    :        0.000000000000 Eh       

---------------
SCF CONVERGENCE
---------------

  Last Energy change         ...    8.4541e-08  Tolerance :   1.0000e-08
  Last MAX-Density change    ...    9.1213e-06  Tolerance :   1.0000e-07
  Last RMS-Density change    ...    1.2156e-07  Tolerance :   5.0000e-09
  Last DIIS Error            ...    4.7390e-07  Tolerance :   5.0000e-07

             **** THE GBW FILE WAS UPDATED (39_CoCl.gbw) ****
             **** DENSITY FILE WAS UPDATED (39_CoCl.scfp) ****
             **** ENERGY FILE WAS UPDATED (39_CoCl.en.tmp) ****
----------------------
UHF SPIN CONTAMINATION
----------------------

Warning: in a DFT calculation there is little theoretical justification to 
         calculate <S**2> as in Hartree-Fock theory. We will do it anyways
         but you should keep in mind that the values have only limited relevance

Expectation value of <S**2>     :     2.009645
Ideal value S*(S+1) for S=1.0   :     2.000000
Deviation                       :     0.009645

             **** THE GBW FILE WAS UPDATED (39_CoCl.gbw) ****
             **** DENSITY FILE WAS UPDATED (39_CoCl.scfp) ****
----------------
ORBITAL ENERGIES
----------------
                 SPIN UP ORBITALS
  NO   OCC          E(Eh)            E(eV) 
   0   1.0000    -276.650121     -7528.0325 
   1   1.0000    -100.987821     -2748.0183 
   2   1.0000     -32.427570      -882.3990 
   3   1.0000     -28.086552      -764.2739 
   4   1.0000     -28.082336      -764.1592 
   5   1.0000     -28.080327      -764.1045 
   6   1.0000      -9.214983      -250.7524 
   7   1.0000      -6.991964      -190.2610 
   8   1.0000      -6.989367      -190.1904 
   9   1.0000      -6.987701      -190.1450 
  10   1.0000      -3.614366       -98.3519 
  11   1.0000      -2.322198       -63.1902 
  12   1.0000      -2.321275       -63.1651 
  13   1.0000      -2.310780       -62.8795 
  14   1.0000      -0.722028       -19.6474 
  15   1.0000      -0.333271        -9.0688 
  16   1.0000      -0.301874        -8.2144 
  17   1.0000      -0.288269        -7.8442 
  18   1.0000      -0.248021        -6.7490 
  19   1.0000      -0.227999        -6.2042 
  20   1.0000      -0.212651        -5.7865 
  21   1.0000      -0.205839        -5.6012 
  22   1.0000      -0.198753        -5.4083 
  23   0.0000      -0.128760        -3.5037 
  24   0.0000      -0.023085        -0.6282 
  25   0.0000      -0.021926        -0.5966 
  26   0.0000       0.007590         0.2065 
  27   0.0000       0.007826         0.2130 
  28   0.0000       0.034311         0.9337 
  29   0.0000       0.035079         0.9546 
  30   0.0000       0.063882         1.7383 
  31   0.0000       0.064501         1.7552 
  32   0.0000       0.064803         1.7634 
  33   0.0000       0.074109         2.0166 
  34   0.0000       0.078334         2.1316 
  35   0.0000       0.078836         2.1452 
  36   0.0000       0.108957         2.9649 
  37   0.0000       0.116217         3.1624 
  38   0.0000       0.116226         3.1627 
  39   0.0000       0.127872         3.4796 
  40   0.0000       0.187174         5.0933 
  41   0.0000       0.188981         5.1424 
  42   0.0000       0.232677         6.3315 
  43   0.0000       0.244079         6.6417 
  44   0.0000       0.244449         6.6518 
  45   0.0000       0.259055         7.0493 
  46   0.0000       0.292246         7.9524 
  47   0.0000       0.294599         8.0164 
  48   0.0000       0.314180         8.5493 
  49   0.0000       0.314722         8.5640 
  50   0.0000       0.343485         9.3467 
  51   0.0000       0.384229        10.4554 
  52   0.0000       0.384585        10.4651 
  53   0.0000       0.460380        12.5276 
  54   0.0000       0.544333        14.8121 
  55   0.0000       0.571315        15.5463 
  56   0.0000       0.571893        15.5620 
  57   0.0000       0.706656        19.2291 
  58   0.0000       0.727504        19.7964 
  59   0.0000       0.728247        19.8166 
  60   0.0000       0.735554        20.0154 
  61   0.0000       0.736964        20.0538 
  62   0.0000       0.816203        22.2100 
  63   0.0000       0.816597        22.2207 
  64   0.0000       0.819337        22.2953 
  65   0.0000       0.901541        24.5322 
  66   0.0000       0.901790        24.5389 
  67   0.0000       0.919658        25.0252 
  68   0.0000       0.919833        25.0299 
  69   0.0000       0.946786        25.7634 
  70   0.0000       1.059621        28.8337 
  71   0.0000       1.059667        28.8350 
  72   0.0000       1.096665        29.8418 
  73   0.0000       1.102467        29.9997 
  74   0.0000       1.168224        31.7890 
  75   0.0000       1.187870        32.3236 
  76   0.0000       1.194329        32.4994 
  77   0.0000       1.200551        32.6687 
  78   0.0000       1.210384        32.9362 
  79   0.0000       1.213201        33.0129 
  80   0.0000       1.312458        35.7138 
  81   0.0000       1.318980        35.8913 
  82   0.0000       1.523531        41.4574 
  83   0.0000       1.690765        46.0081 
  84   0.0000       1.695175        46.1281 
  85   0.0000       2.035017        55.3756 
  86   0.0000       2.199006        59.8380 
  87   0.0000       2.205997        60.0282 
  88   0.0000       2.321610        63.1742 
  89   0.0000       2.324961        63.2654 
  90   0.0000       2.382682        64.8361 
  91   0.0000       2.440653        66.4135 
  92   0.0000       2.442085        66.4525 
  93   0.0000       2.738701        74.5239 
  94   0.0000       2.738728        74.5246 
  95   0.0000       2.769460        75.3608 
  96   0.0000       2.772287        75.4378 
  97   0.0000       2.772633        75.4472 
  98   0.0000       2.780547        75.6625 
  99   0.0000       2.817207        76.6601 
 100   0.0000       2.947396        80.2027 
 101   0.0000       3.098341        84.3102 
 102   0.0000       3.099372        84.3382 
 103   0.0000       3.146819        85.6293 
 104   0.0000       3.159336        85.9699 
 105   0.0000       3.180292        86.5401 
 106   0.0000       3.260057        88.7107 
 107   0.0000       3.272524        89.0499 
 108   0.0000       3.327931        90.5576 
 109   0.0000       3.328468        90.5722 
 110   0.0000       3.480691        94.7144 
 111   0.0000       3.849172       104.7413 
 112   0.0000       3.971892       108.0807 
 113   0.0000       3.971928       108.0817 
 114   0.0000       3.973808       108.1328 
 115   0.0000       3.978021       108.2474 
 116   0.0000       4.020821       109.4121 
 117   0.0000       4.027319       109.5889 
 118   0.0000       4.246470       115.5523 
 119   0.0000       4.253939       115.7556 
 120   0.0000       4.360880       118.6656 
 121   0.0000       5.017117       136.5227 
 122   0.0000       5.042579       137.2155 
 123   0.0000       5.304905       144.3538 
 124   0.0000       5.331630       145.0810 
 125   0.0000       6.138580       167.0393 
 126   0.0000       6.571623       178.8230 
 127   0.0000      10.288943       279.9764 
 128   0.0000      10.294272       280.1214 
 129   0.0000      10.302302       280.3399 
 130   0.0000      10.330338       281.1028 
 131   0.0000      10.360392       281.9206 
 132   0.0000      10.403455       283.0924 
 133   0.0000      10.448384       284.3150 
 134   0.0000      11.437027       311.2173 
 135   0.0000      11.438022       311.2444 
 136   0.0000      11.439347       311.2804 
 137   0.0000      11.441776       311.3466 
 138   0.0000      11.464079       311.9534 
 139   0.0000      11.478971       312.3587 
 140   0.0000      11.565520       314.7138 
 141   0.0000      11.591644       315.4247 
 142   0.0000      11.724076       319.0283 

                 SPIN DOWN ORBITALS
  NO   OCC          E(Eh)            E(eV) 
   0   1.0000    -276.649687     -7528.0207 
   1   1.0000    -100.987545     -2748.0108 
   2   1.0000     -32.394816      -881.5077 
   3   1.0000     -28.058737      -763.5171 
   4   1.0000     -28.057039      -763.4709 
   5   1.0000     -28.053710      -763.3803 
   6   1.0000      -9.214723      -250.7454 
   7   1.0000      -6.992205      -190.2676 
   8   1.0000      -6.988091      -190.1556 
   9   1.0000      -6.987620      -190.1428 
  10   1.0000      -3.532495       -96.1241 
  11   1.0000      -2.242898       -61.0324 
  12   1.0000      -2.232777       -60.7569 
  13   1.0000      -2.232098       -60.7385 
  14   1.0000      -0.719995       -19.5921 
  15   1.0000      -0.324200        -8.8219 
  16   1.0000      -0.281714        -7.6658 
  17   1.0000      -0.276143        -7.5142 
  18   1.0000      -0.183950        -5.0055 
  19   1.0000      -0.178567        -4.8591 
  20   1.0000      -0.171239        -4.6597 
  21   0.0000      -0.123145        -3.3510 
  22   0.0000      -0.118846        -3.2340 
  23   0.0000      -0.103844        -2.8257 
  24   0.0000      -0.018875        -0.5136 
  25   0.0000      -0.015235        -0.4146 
  26   0.0000       0.008216         0.2236 
  27   0.0000       0.008645         0.2352 
  28   0.0000       0.035991         0.9794 
  29   0.0000       0.037948         1.0326 
  30   0.0000       0.063876         1.7382 
  31   0.0000       0.064500         1.7551 
  32   0.0000       0.067397         1.8340 
  33   0.0000       0.076170         2.0727 
  34   0.0000       0.078622         2.1394 
  35   0.0000       0.078845         2.1455 
  36   0.0000       0.114092         3.1046 
  37   0.0000       0.116614         3.1732 
  38   0.0000       0.117930         3.2090 
  39   0.0000       0.128402         3.4940 
  40   0.0000       0.192881         5.2486 
  41   0.0000       0.196774         5.3545 
  42   0.0000       0.240235         6.5371 
  43   0.0000       0.246127         6.6975 
  44   0.0000       0.249190         6.7808 
  45   0.0000       0.260006         7.0751 
  46   0.0000       0.299367         8.1462 
  47   0.0000       0.306632         8.3439 
  48   0.0000       0.317046         8.6273 
  49   0.0000       0.329266         8.9598 
  50   0.0000       0.349150         9.5008 
  51   0.0000       0.386788        10.5250 
  52   0.0000       0.388545        10.5728 
  53   0.0000       0.465596        12.6695 
  54   0.0000       0.560432        15.2501 
  55   0.0000       0.574116        15.6225 
  56   0.0000       0.574263        15.6265 
  57   0.0000       0.714269        19.4363 
  58   0.0000       0.730327        19.8732 
  59   0.0000       0.730941        19.8899 
  60   0.0000       0.740349        20.1459 
  61   0.0000       0.741497        20.1772 
  62   0.0000       0.818223        22.2650 
  63   0.0000       0.836271        22.7561 
  64   0.0000       0.841805        22.9067 
  65   0.0000       0.907368        24.6907 
  66   0.0000       0.914388        24.8818 
  67   0.0000       0.928344        25.2615 
  68   0.0000       0.931651        25.3515 
  69   0.0000       0.965574        26.2746 
  70   0.0000       1.068441        29.0738 
  71   0.0000       1.071204        29.1490 
  72   0.0000       1.113326        30.2952 
  73   0.0000       1.126668        30.6582 
  74   0.0000       1.171445        31.8766 
  75   0.0000       1.209786        32.9199 
  76   0.0000       1.213731        33.0273 
  77   0.0000       1.227743        33.4086 
  78   0.0000       1.239834        33.7376 
  79   0.0000       1.240528        33.7565 
  80   0.0000       1.327182        36.1144 
  81   0.0000       1.343047        36.5462 
  82   0.0000       1.537679        41.8424 
  83   0.0000       1.707996        46.4769 
  84   0.0000       1.718143        46.7530 
  85   0.0000       2.049538        55.7708 
  86   0.0000       2.201724        59.9120 
  87   0.0000       2.209090        60.1124 
  88   0.0000       2.325661        63.2845 
  89   0.0000       2.326506        63.3074 
  90   0.0000       2.384598        64.8882 
  91   0.0000       2.447264        66.5934 
  92   0.0000       2.448060        66.6151 
  93   0.0000       2.742601        74.6300 
  94   0.0000       2.742606        74.6301 
  95   0.0000       2.775802        75.5334 
  96   0.0000       2.776054        75.5403 
  97   0.0000       2.776205        75.5444 
  98   0.0000       2.783595        75.7455 
  99   0.0000       2.820896        76.7605 
 100   0.0000       2.982190        81.1495 
 101   0.0000       3.147884        85.6583 
 102   0.0000       3.148938        85.6869 
 103   0.0000       3.196277        86.9751 
 104   0.0000       3.216960        87.5379 
 105   0.0000       3.239693        88.1565 
 106   0.0000       3.303310        89.8876 
 107   0.0000       3.324695        90.4695 
 108   0.0000       3.384071        92.0852 
 109   0.0000       3.388162        92.1966 
 110   0.0000       3.517861        95.7259 
 111   0.0000       3.886184       105.7485 
 112   0.0000       4.014686       109.2452 
 113   0.0000       4.015298       109.2618 
 114   0.0000       4.016655       109.2987 
 115   0.0000       4.018760       109.3560 
 116   0.0000       4.060388       110.4888 
 117   0.0000       4.085529       111.1729 
 118   0.0000       4.277008       116.3833 
 119   0.0000       4.299193       116.9870 
 120   0.0000       4.398058       119.6773 
 121   0.0000       5.080443       138.2459 
 122   0.0000       5.114002       139.1591 
 123   0.0000       5.373986       146.2336 
 124   0.0000       5.401187       146.9738 
 125   0.0000       6.145797       167.2356 
 126   0.0000       6.621498       180.1801 
 127   0.0000      10.387387       282.6552 
 128   0.0000      10.398137       282.9477 
 129   0.0000      10.420032       283.5435 
 130   0.0000      10.444980       284.2224 
 131   0.0000      10.475508       285.0531 
 132   0.0000      10.494471       285.5691 
 133   0.0000      10.541664       286.8533 
 134   0.0000      11.526445       313.6505 
 135   0.0000      11.528157       313.6971 
 136   0.0000      11.528313       313.7014 
 137   0.0000      11.528860       313.7162 
 138   0.0000      11.545881       314.1794 
 139   0.0000      11.556804       314.4766 
 140   0.0000      11.654136       317.1252 
 141   0.0000      11.658624       317.2473 
 142   0.0000      11.798798       321.0616 

                    ********************************
                    * MULLIKEN POPULATION ANALYSIS *
                    ********************************

--------------------------------------------
MULLIKEN ATOMIC CHARGES AND SPIN POPULATIONS
--------------------------------------------
   0 Co:    0.406016    1.956450
   1 Cl:   -0.406016    0.043550
Sum of atomic charges         :   -0.0000000
Sum of atomic spin populations:    2.0000000

-----------------------------------------------------
MULLIKEN REDUCED ORBITAL CHARGES AND SPIN POPULATIONS
-----------------------------------------------------
CHARGE
  0 Cos       :     6.561208  s :     6.561208
      pz      :     4.068226  p :    12.183258
      px      :     4.051632
      py      :     4.063401
      dz2     :     1.583950  d :     7.834575
      dxz     :     1.079381
      dyz     :     1.973241
      dx2y2   :     1.200960
      dxy     :     1.997043
      f0      :     0.004083  f :     0.014381
      f+1     :     0.004710
      f-1     :     0.005429
      f+2     :     0.000067
      f-2     :     0.000037
      f+3     :     0.000012
      f-3     :     0.000042
      g0      :     0.000223  g :     0.000563
      g+1     :     0.000134
      g-1     :     0.000148
      g+2     :     0.000021
      g-2     :     0.000006
      g+3     :     0.000007
      g-3     :     0.000000
      g+4     :     0.000019
      g-4     :     0.000004
  1 Cls       :     5.982048  s :     5.982048
      pz      :     3.592247  p :    11.383583
      px      :     3.852424
      py      :     3.938912
      dz2     :     0.005683  d :     0.036317
      dxz     :     0.010592
      dyz     :     0.017219
      dx2y2   :     0.000863
      dxy     :     0.001960
      f0      :    -0.000017  f :     0.004068
      f+1     :     0.001106
      f-1     :     0.001607
      f+2     :     0.000420
      f-2     :     0.000950
      f+3     :     0.000002
      f-3     :     0.000001

SPIN
  0 Cos       :     0.024078  s :     0.024078
      pz      :     0.002217  p :     0.014693
      px      :     0.007979
      py      :     0.004498
      dz2     :     0.210095  d :     1.917555
      dxz     :     0.906420
      dyz     :     0.004592
      dx2y2   :     0.796211
      dxy     :     0.000237
      f0      :     0.000096  f :     0.000189
      f+1     :     0.000439
      f-1     :    -0.000325
      f+2     :     0.000001
      f-2     :     0.000008
      f+3     :    -0.000003
      f-3     :    -0.000027
      g0      :    -0.000038  g :    -0.000065
      g+1     :     0.000009
      g-1     :    -0.000031
      g+2     :    -0.000006
      g-2     :     0.000005
      g+3     :     0.000003
      g-3     :     0.000000
      g+4     :    -0.000007
      g-4     :    -0.000002
  1 Cls       :    -0.006268  s :    -0.006268
      pz      :    -0.027280  p :     0.048407
      px      :     0.082463
      py      :    -0.006775
      dz2     :     0.000038  d :     0.001257
      dxz     :     0.002573
      dyz     :    -0.001610
      dx2y2   :     0.000474
      dxy     :    -0.000218
      f0      :     0.000050  f :     0.000155
      f+1     :     0.000117
      f-1     :    -0.000322
      f+2     :     0.000338
      f-2     :    -0.000030
      f+3     :     0.000001
      f-3     :     0.000000


                     *******************************
                     * LOEWDIN POPULATION ANALYSIS *
                     *******************************

-------------------------------------------
LOEWDIN ATOMIC CHARGES AND SPIN POPULATIONS
-------------------------------------------
   0 Co:    0.021923    1.918319
   1 Cl:   -0.021923    0.081681

----------------------------------------------------
LOEWDIN REDUCED ORBITAL CHARGES AND SPIN POPULATIONS
----------------------------------------------------
CHARGE
  0 Cos       :     6.465501  s :     6.465501
      pz      :     4.195401  p :    12.388300
      px      :     4.080095
      py      :     4.112805
      dz2     :     1.696144  d :     7.999759
      dxz     :     1.133828
      dyz     :     1.988302
      dx2y2   :     1.195151
      dxy     :     1.986335
      f0      :     0.045921  f :     0.121261
      f+1     :     0.034907
      f-1     :     0.039967
      f+2     :     0.000163
      f-2     :     0.000249
      f+3     :     0.000012
      f-3     :     0.000042
      g0      :     0.001528  g :     0.003256
      g+1     :     0.000795
      g-1     :     0.000878
      g+2     :     0.000021
      g-2     :     0.000004
      g+3     :     0.000007
      g-3     :     0.000000
      g+4     :     0.000019
      g-4     :     0.000004
  1 Cls       :     5.580467  s :     5.580467
      pz      :     3.634713  p :    11.080053
      px      :     3.690012
      py      :     3.755329
      dz2     :     0.117521  d :     0.224794
      dxz     :     0.035301
      dyz     :     0.062267
      dx2y2   :     0.003224
      dxy     :     0.006480
      f0      :     0.060456  f :     0.136610
      f+1     :     0.025043
      f-1     :     0.040409
      f+2     :     0.003772
      f-2     :     0.006927
      f+3     :     0.000002
      f-3     :     0.000001

SPIN
  0 Cos       :     0.014173  s :     0.014173
      pz      :    -0.000472  p :     0.023866
      px      :     0.021754
      py      :     0.002584
      dz2     :     0.202451  d :     1.877147
      dxz     :     0.875307
      dyz     :     0.005467
      dx2y2   :     0.793081
      dxy     :     0.000841
      f0      :    -0.000288  f :     0.003146
      f+1     :     0.004023
      f-1     :    -0.000656
      f+2     :     0.000084
      f-2     :     0.000012
      f+3     :    -0.000003
      f-3     :    -0.000027
      g0      :    -0.000074  g :    -0.000013
      g+1     :     0.000077
      g-1     :    -0.000001
      g+2     :    -0.000010
      g-2     :     0.000000
      g+3     :     0.000003
      g-3     :     0.000000
      g+4     :    -0.000007
      g-4     :    -0.000002
  1 Cls       :    -0.001568  s :    -0.001568
      pz      :    -0.014018  p :     0.048805
      px      :     0.066817
      py      :    -0.003994
      dz2     :     0.002174  d :     0.018853
      dxz     :     0.018525
      dyz     :    -0.002882
      dx2y2   :     0.001618
      dxy     :    -0.000583
      f0      :     0.000609  f :     0.015591
      f+1     :     0.013496
      f-1     :    -0.000492
      f+2     :     0.002247
      f-2     :    -0.000270
      f+3     :     0.000001
      f-3     :     0.000000


                      *****************************
                      * MAYER POPULATION ANALYSIS *
                      *****************************

  NA   - Mulliken gross atomic population
  ZA   - Total nuclear charge
  QA   - Mulliken gross atomic charge
  VA   - Mayer's total valence
  BVA  - Mayer's bonded valence
  FA   - Mayer's free valence

  ATOM       NA         ZA         QA         VA         BVA        FA
  0 Co    26.5940    27.0000     0.4060     3.1313     1.2985     1.8328
  1 Cl    17.4060    17.0000    -0.4060     1.3081     1.2985     0.0096

  Mayer bond orders larger than 0.100000
B(  0-Co,  1-Cl) :   1.2985 

-------
TIMINGS
-------

Total SCF time: 0 days 0 hours 0 min 6 sec 

Total time                  ....       6.756 sec
Sum of individual times     ....       6.493 sec  ( 96.1%)

Fock matrix formation       ....       5.903 sec  ( 87.4%)
  Split-RI-J                ....       4.880 sec  ( 82.7% of F)
  XC integration            ....       0.765 sec  ( 13.0% of F)
    Basis function eval.    ....       0.084 sec  ( 10.9% of XC)
    Density eval.           ....       0.094 sec  ( 12.3% of XC)
    XC-Functional eval.     ....       0.022 sec  (  2.9% of XC)
    XC-Potential eval.      ....       0.276 sec  ( 36.1% of XC)
Diagonalization             ....       0.214 sec  (  3.2%)
Density matrix formation    ....       0.026 sec  (  0.4%)
Population analysis         ....       0.007 sec  (  0.1%)
Initial guess               ....       0.130 sec  (  1.9%)
Orbital Transformation      ....       0.000 sec  (  0.0%)
Orbital Orthonormalization  ....       0.000 sec  (  0.0%)
DIIS solution               ....       0.071 sec  (  1.0%)
Grid generation             ....       0.142 sec  (  2.1%)


-------------------------------------------------------------------------------
                          DFT DISPERSION CORRECTION                            
                                                                               
                              DFTD3 V3.1  Rev 1                                
                          USING Becke-Johnson damping                          
-------------------------------------------------------------------------------
The TPSS functional is recognized
Active option DFTDOPT                   ...         4   

molecular C6(AA) [au] = 581.756009 


            DFT-D V3
 parameters
 s6 scaling factor         :     1.0000 
 a1 scaling factor         :     0.4535 
 s8 scaling factor         :     1.9435 
 a2 scaling factor         :     4.4752 
 ad hoc parameters k1-k3   :    16.0000     1.3333    -4.0000 

 Edisp/kcal,au: -0.912829694130  -0.001454686558 
 E6   /kcal   :  -0.319958082 
 E8   /kcal   :  -0.592871612 
 % E8         :  64.948764941 

-------------------------   ----------------
Dispersion correction           -0.001454687
-------------------------   ----------------


-------------------------   --------------------
FINAL SINGLE POINT ENERGY     -1843.116398842721
-------------------------   --------------------



           ************************************************************
           *        Program running with 24 parallel MPI-processes    *
           *              working on a common directory               *
           ************************************************************
------------------------------------------------------------------------------
                         ORCA SCF GRADIENT CALCULATION
------------------------------------------------------------------------------

Gradient of the Kohn-Sham DFT energy:
Kohn-Sham wavefunction type      ... UKS
Hartree-Fock exchange scaling    ...    0.000
Number of operators              ...    2
Number of atoms                  ...    2
Basis set dimensions             ...  143
Integral neglect threshold       ... 2.5e-11
Integral primitive cutoff        ... 2.5e-12

Nuclear repulsion gradient       ... done
One Electron Gradient            ... done
Pre-screening matrix             ... done
RI-J gradient                    ... done
Exchange-correlation gradient    ... done
Dispersion correction            ... done

------------------
CARTESIAN GRADIENT
------------------

   1   Co  :    0.000000002   -0.000000006    0.028166398
   2   Cl  :   -0.000000005    0.000000005   -0.028878434

Difference to translation invariance:
           :   -0.0000000031   -0.0000000017   -0.0007120363

Norm of the cartesian gradient     ...    0.0403399295
RMS gradient                       ...    0.0164687073
MAX gradient                       ...    0.0288784340

-------
TIMINGS
-------

Total SCF gradient time            ...        4.531 sec

One electron gradient       ....       0.046 sec  (  1.0%)
Prescreening matrices       ....       3.637 sec  ( 80.3%)
RI-J Coulomb gradient       ....       0.256 sec  (  5.6%)
XC gradient                 ....       0.061 sec  (  1.4%)
------------------------------------------------------------------------------
                         ORCA GEOMETRY RELAXATION STEP
------------------------------------------------------------------------------

Reading the OPT-File                    .... done
Getting information on internals        .... done
Copying old internal coords+grads       .... done
Making the new internal coordinates     .... (new redundants).... done
Validating the new internal coordinates .... (new redundants).... done
Calculating the B-matrix                .... done
Calculating the G,G- and P matrices     .... done
Transforming gradient to internals      .... done
Projecting the internal gradient        .... done
Number of atoms                         ....   2
Number of internal coordinates          ....   1
Current Energy                          .... -1843.116398843 Eh
Current gradient norm                   ....     0.040339930 Eh/bohr
Maximum allowed component of the step   ....  0.300
Current trust radius                    ....  0.300
Evaluating the initial hessian          ....  (Almloef) done
Projecting the Hessian                  .... done
Forming the augmented Hessian           .... done
Diagonalizing the augmented Hessian     .... done
Last element of RFO vector              ....  0.999821504
Lowest eigenvalues of augmented Hessian:
 -0.000538982
Length of the computed step             ....  0.018896787
The final length of the internal step   ....  0.018896787
Converting the step to cartesian space:
 Initial RMS(Int)=    0.0188967867
Transforming coordinates:
 Iter   0:  RMS(Cart)=    0.0054550324 RMS(Int)=    0.0188967867
 Iter   1:  RMS(Cart)=    0.0000000000 RMS(Int)=    0.0000000000
done
Storing new coordinates                 .... done

                                .--------------------.
          ----------------------|Geometry convergence|-------------------------
          Item                value                   Tolerance       Converged
          ---------------------------------------------------------------------
          RMS gradient        0.0285224159            0.0001000000      NO
          MAX gradient        0.0285224159            0.0003000000      NO
          RMS step            0.0188967867            0.0020000000      NO
          MAX step            0.0188967867            0.0040000000      NO
          ........................................................
          Max(Bonds)      0.0100      Max(Angles)    0.00
          Max(Dihed)        0.00      Max(Improp)    0.00
          ---------------------------------------------------------------------

The optimization has not yet converged - more geometry cycles are needed


    ---------------------------------------------------------------------------
                         Redundant Internal Coordinates
                            (Angstroem and degrees)

        Definition                    Value    dE/dq     Step     New-Value
    ----------------------------------------------------------------------------
     1. B(Cl  1,Co  0)                2.0000 -0.028522  0.0100    2.0100   
    ----------------------------------------------------------------------------

         *************************************************************
         *                GEOMETRY OPTIMIZATION CYCLE   2            *
         *************************************************************
---------------------------------
CARTESIAN COORDINATES (ANGSTROEM)
---------------------------------
  Co     0.000000    0.000000   -0.005000
  Cl     0.000000    0.000000    2.005000

----------------------------
CARTESIAN COORDINATES (A.U.)
----------------------------
  NO LB      ZA    FRAG     MASS         X           Y           Z
   0 Co   27.0000    0    58.930    0.000000    0.000000   -0.009448
   1 Cl   17.0000    0    35.453    0.000000    0.000000    3.788901

--------------------------------
INTERNAL COORDINATES (ANGSTROEM)
--------------------------------
 Co     0   0   0     0.000000000000     0.00000000     0.00000000
 Cl     1   0   0     2.009999748825     0.00000000     0.00000000

---------------------------
INTERNAL COORDINATES (A.U.)
---------------------------
 Co     0   0   0     0.000000000000     0.00000000     0.00000000
 Cl     1   0   0     3.798349054530     0.00000000     0.00000000



           ************************************************************
           *        Program running with 24 parallel MPI-processes    *
           *              working on a common directory               *
           ************************************************************
 One Electron integrals                  ... done
 Pre-screening matrix                    ... done


           ************************************************************
           *        Program running with 24 parallel MPI-processes    *
           *              working on a common directory               *
           ************************************************************

Diagonalization of the overlap matrix:
Smallest eigenvalue                        ... 1.256e-04
Time for diagonalization                   ...    0.006 sec
Threshold for overlap eigenvalues          ... 1.000e-08
Number of eigenvalues below threshold      ... 0
Time for construction of square roots      ...    0.002 sec
Total time needed                          ...    0.008 sec

-------------------
DFT GRID GENERATION
-------------------

General Integration Accuracy     IntAcc      ...  4.340
Radial Grid Type                 RadialGrid  ... Gauss-Chebyshev
Angular Grid (max. acc.)         AngularGrid ... Lebedev-110
Angular grid pruning method      GridPruning ... 3 (G Style)
Weight generation scheme         WeightScheme... Becke
Basis function cutoff            BFCut       ...    1.0000e-11
Integration weight cutoff        WCut        ...    1.0000e-14
Grids for H and He will be reduced by one unit

# of grid points (after initial pruning)     ...   4756 (   0.0 sec)
# of grid points (after weights+screening)   ...   4731 (   0.0 sec)
nearest neighbour list constructed           ...    0.0 sec
Grid point re-assignment to atoms done       ...    0.0 sec
Grid point division into batches done        ...    0.0 sec
Reduced shell lists constructed in    0.0 sec

Total number of grid points                  ...     4731
Total number of batches                      ...       75
Average number of points per batch           ...       63
Average number of grid points per atom       ...     2366
Average number of shells per batch           ...    23.20 (56.59%)
Average number of basis functions per batch  ...    71.20 (49.79%)
Average number of large shells per batch     ...    16.00 (68.97%)
Average number of large basis fcns per batch ...    42.40 (59.55%)
Maximum spatial batch extension              ...  18.98, 28.73, 16.15 au
Average spatial batch extension              ...   0.95,  1.29,  0.86 au

Time for grid setup =    0.020 sec

--------------
SCF ITERATIONS
--------------
ITER       Energy         Delta-E        Max-DP      RMS-DP      [F,P]     Damp
               ***  Starting incremental Fock matrix formation  ***
  0  -1843.1141946246   0.000000000000 0.00038655  0.00001185  0.0036259 0.7000
  1  -1843.1141989007  -0.000004276144 0.00030850  0.00001015  0.0025383 0.7000
                               ***Turning on DIIS***
  2  -1843.1142020754  -0.000003174694 0.00085712  0.00002528  0.0017748 0.0000
  3  -1843.1142099369  -0.000007861482 0.00068998  0.00000909  0.0002770 0.0000
  4  -1843.1142108842  -0.000000947309 0.00045508  0.00000594  0.0005894 0.0000
  5  -1843.1142102092   0.000000674997 0.00024470  0.00000352  0.0006923 0.0000
  6  -1843.1142110188  -0.000000809591 0.00012961  0.00000119  0.0000785 0.0000
  7  -1843.1142109849   0.000000033923 0.00007293  0.00000067  0.0000354 0.0000
  8  -1843.1142109354   0.000000049452 0.00006782  0.00000057  0.0000061 0.0000
  9  -1843.1142109812  -0.000000045751 0.00003547  0.00000030  0.0000030 0.0000
                            ***DIIS convergence achieved***

               *****************************************************
               *                     SUCCESS                       *
               *           SCF CONVERGED AFTER  10 CYCLES          *
               *****************************************************

Setting up the final grid:

General Integration Accuracy     IntAcc      ...  4.670
Radial Grid Type                 RadialGrid  ... Gauss-Chebyshev
Angular Grid (max. acc.)         AngularGrid ... Lebedev-302
Angular grid pruning method      GridPruning ... 3 (G Style)
Weight generation scheme         WeightScheme... Becke
Basis function cutoff            BFCut       ...    1.0000e-11
Integration weight cutoff        WCut        ...    1.0000e-14
Grids for H and He will be reduced by one unit

# of grid points (after initial pruning)     ...  16378 (   0.0 sec)
# of grid points (after weights+screening)   ...  16349 (   0.0 sec)
nearest neighbour list constructed           ...    0.0 sec
Grid point re-assignment to atoms done       ...    0.0 sec
Grid point division into batches done        ...    0.1 sec
Reduced shell lists constructed in    0.1 sec

Total number of grid points                  ...    16349
Total number of batches                      ...      256
Average number of points per batch           ...       63
Average number of grid points per atom       ...     8174
Average number of shells per batch           ...    15.33 (37.40%)
Average number of basis functions per batch  ...    35.50 (24.83%)
Average number of large shells per batch     ...     8.33 (54.35%)
Average number of large basis fcns per batch ...    19.83 (55.87%)
Maximum spatial batch extension              ...  24.49, 24.19, 18.13 au
Average spatial batch extension              ...   0.85,  0.84,  0.65 au

Final grid set up in    0.1 sec
Final integration                            ... done (   0.0 sec)
Change in XC energy                          ...    -0.001226837
Integrated number of electrons               ...    44.000015650
Previous integrated no of electrons          ...    43.999979218
Total Energy       :        -1843.11543780 Eh          -50153.72083 eV
  Last Energy change         ...    2.3003e-08  Tolerance :   1.0000e-08
  Last MAX-Density change    ...    1.0894e-05  Tolerance :   1.0000e-07
             **** THE GBW FILE WAS UPDATED (39_CoCl.gbw) ****
             **** DENSITY FILE WAS UPDATED (39_CoCl.scfp) ****
             **** ENERGY FILE WAS UPDATED (39_CoCl.en.tmp) ****
----------------------
UHF SPIN CONTAMINATION
----------------------

Warning: in a DFT calculation there is little theoretical justification to 
         calculate <S**2> as in Hartree-Fock theory. We will do it anyways
         but you should keep in mind that the values have only limited relevance

Expectation value of <S**2>     :     2.009879
Ideal value S*(S+1) for S=1.0   :     2.000000
Deviation                       :     0.009879

             **** THE GBW FILE WAS UPDATED (39_CoCl.gbw) ****
             **** DENSITY FILE WAS UPDATED (39_CoCl.scfp) ****
Total SCF time: 0 days 0 hours 0 min 2 sec 


-------------------------------------------------------------------------------
                          DFT DISPERSION CORRECTION                            
                                                                               
                              DFTD3 V3.1  Rev 1                                
                          USING Becke-Johnson damping                          
-------------------------------------------------------------------------------
-------------------------   ----------------
Dispersion correction           -0.001455125
-------------------------   ----------------


-------------------------   --------------------
FINAL SINGLE POINT ENERGY     -1843.116892919786
-------------------------   --------------------



           ************************************************************
           *        Program running with 24 parallel MPI-processes    *
           *              working on a common directory               *
           ************************************************************
------------------------------------------------------------------------------
                         ORCA SCF GRADIENT CALCULATION
------------------------------------------------------------------------------

Gradient of the Kohn-Sham DFT energy:
Kohn-Sham wavefunction type      ... UKS
Hartree-Fock exchange scaling    ...    0.000
Number of operators              ...    2
Number of atoms                  ...    2
Basis set dimensions             ...  143
Integral neglect threshold       ... 2.5e-11
Integral primitive cutoff        ... 2.5e-12

Nuclear repulsion gradient       ... done
One Electron Gradient            ... done
Pre-screening matrix             ... done
RI-J gradient                    ... done
Exchange-correlation gradient    ... done
Dispersion correction            ... done

------------------
CARTESIAN GRADIENT
------------------

   1   Co  :    0.000000000   -0.000000002    0.024364722
   2   Cl  :   -0.000000001    0.000000000   -0.025122097

Difference to translation invariance:
           :   -0.0000000007   -0.0000000016   -0.0007573753

Norm of the cartesian gradient     ...    0.0349965628
RMS gradient                       ...    0.0142872870
MAX gradient                       ...    0.0251220969

-------
TIMINGS
-------

Total SCF gradient time            ...        4.557 sec

One electron gradient       ....       0.054 sec  (  1.2%)
Prescreening matrices       ....       3.643 sec  ( 79.9%)
RI-J Coulomb gradient       ....       0.255 sec  (  5.6%)
XC gradient                 ....       0.060 sec  (  1.3%)
------------------------------------------------------------------------------
                         ORCA GEOMETRY RELAXATION STEP
------------------------------------------------------------------------------

Reading the OPT-File                    .... done
Getting information on internals        .... done
Copying old internal coords+grads       .... done
Making the new internal coordinates     .... (new redundants).... done
Validating the new internal coordinates .... (new redundants).... done
Calculating the B-matrix                .... done
Calculating the G,G- and P matrices     .... done
Transforming gradient to internals      .... done
Projecting the internal gradient        .... done
Number of atoms                         ....   2
Number of internal coordinates          ....   1
Current Energy                          .... -1843.116892920 Eh
Current gradient norm                   ....     0.034996563 Eh/bohr
Maximum allowed component of the step   ....  0.300
Current trust radius                    ....  0.300
Updating the Hessian (BFGS)             .... done
Forming the augmented Hessian           .... done
Diagonalizing the augmented Hessian     .... done
Last element of RFO vector              ....  0.992653147
Lowest eigenvalues of augmented Hessian:
 -0.003015981
Length of the computed step             ....  0.121890263
The final length of the internal step   ....  0.121890263
Converting the step to cartesian space:
 Initial RMS(Int)=    0.1218902631
Transforming coordinates:
 Iter   0:  RMS(Cart)=    0.0351866881 RMS(Int)=    0.1218902631
 Iter   1:  RMS(Cart)=    0.0000000000 RMS(Int)=    0.0000000000
done
Storing new coordinates                 .... done

                                .--------------------.
          ----------------------|Geometry convergence|-------------------------
          Item                value                   Tolerance       Converged
          ---------------------------------------------------------------------
          Energy change      -0.0004940771            0.0000050000      NO
          RMS gradient        0.0247434092            0.0001000000      NO
          MAX gradient        0.0247434092            0.0003000000      NO
          RMS step            0.1218902631            0.0020000000      NO
          MAX step            0.1218902631            0.0040000000      NO
          ........................................................
          Max(Bonds)      0.0645      Max(Angles)    0.00
          Max(Dihed)        0.00      Max(Improp)    0.00
          ---------------------------------------------------------------------

The optimization has not yet converged - more geometry cycles are needed


    ---------------------------------------------------------------------------
                         Redundant Internal Coordinates
                            (Angstroem and degrees)

        Definition                    Value    dE/dq     Step     New-Value
    ----------------------------------------------------------------------------
     1. B(Cl  1,Co  0)                2.0100 -0.024743  0.0645    2.0745   
    ----------------------------------------------------------------------------

         *************************************************************
         *                GEOMETRY OPTIMIZATION CYCLE   3            *
         *************************************************************
---------------------------------
CARTESIAN COORDINATES (ANGSTROEM)
---------------------------------
  Co     0.000000    0.000000   -0.037251
  Cl     0.000000    0.000000    2.037251

----------------------------
CARTESIAN COORDINATES (A.U.)
----------------------------
  NO LB      ZA    FRAG     MASS         X           Y           Z
   0 Co   27.0000    0    58.930    0.000000    0.000000   -0.070394
   1 Cl   17.0000    0    35.453    0.000000    0.000000    3.849846

--------------------------------
INTERNAL COORDINATES (ANGSTROEM)
--------------------------------
 Co     0   0   0     0.000000000000     0.00000000     0.00000000
 Cl     1   0   0     2.074501297984     0.00000000     0.00000000

---------------------------
INTERNAL COORDINATES (A.U.)
---------------------------
 Co     0   0   0     0.000000000000     0.00000000     0.00000000
 Cl     1   0   0     3.920239317654     0.00000000     0.00000000



           ************************************************************
           *        Program running with 24 parallel MPI-processes    *
           *              working on a common directory               *
           ************************************************************
 One Electron integrals                  ... done
 Pre-screening matrix                    ... done


           ************************************************************
           *        Program running with 24 parallel MPI-processes    *
           *              working on a common directory               *
           ************************************************************

Diagonalization of the overlap matrix:
Smallest eigenvalue                        ... 1.350e-04
Time for diagonalization                   ...    0.006 sec
Threshold for overlap eigenvalues          ... 1.000e-08
Number of eigenvalues below threshold      ... 0
Time for construction of square roots      ...    0.003 sec
Total time needed                          ...    0.009 sec

-------------------
DFT GRID GENERATION
-------------------

General Integration Accuracy     IntAcc      ...  4.340
Radial Grid Type                 RadialGrid  ... Gauss-Chebyshev
Angular Grid (max. acc.)         AngularGrid ... Lebedev-110
Angular grid pruning method      GridPruning ... 3 (G Style)
Weight generation scheme         WeightScheme... Becke
Basis function cutoff            BFCut       ...    1.0000e-11
Integration weight cutoff        WCut        ...    1.0000e-14
Grids for H and He will be reduced by one unit

# of grid points (after initial pruning)     ...   4756 (   0.0 sec)
# of grid points (after weights+screening)   ...   4731 (   0.0 sec)
nearest neighbour list constructed           ...    0.0 sec
Grid point re-assignment to atoms done       ...    0.0 sec
Grid point division into batches done        ...    0.0 sec
Reduced shell lists constructed in    0.0 sec

Total number of grid points                  ...     4731
Total number of batches                      ...       75
Average number of points per batch           ...       63
Average number of grid points per atom       ...     2366
Average number of shells per batch           ...    23.20 (56.59%)
Average number of basis functions per batch  ...    71.20 (49.79%)
Average number of large shells per batch     ...    16.00 (68.97%)
Average number of large basis fcns per batch ...    42.40 (59.55%)
Maximum spatial batch extension              ...  18.98, 28.73, 16.15 au
Average spatial batch extension              ...   0.95,  1.29,  0.86 au

Time for grid setup =    0.019 sec

--------------
SCF ITERATIONS
--------------
ITER       Energy         Delta-E        Max-DP      RMS-DP      [F,P]     Damp
               ***  Starting incremental Fock matrix formation  ***
  0  -1843.1152582438   0.000000000000 0.00224756  0.00007136  0.0236414 0.7000
  1  -1843.1153988891  -0.000140645330 0.00218943  0.00006186  0.0165520 0.7000
                               ***Turning on DIIS***
  2  -1843.1155023766  -0.000103487463 0.00596132  0.00015394  0.0115748 0.0000
  3  -1843.1157487618  -0.000246385202 0.00117146  0.00002110  0.0016122 0.0000
  4  -1843.1157581873  -0.000009425489 0.00232372  0.00003155  0.0009766 0.0000
  5  -1843.1157647421  -0.000006554867 0.00085900  0.00001103  0.0009608 0.0000
  6  -1843.1157661068  -0.000001364657 0.00033851  0.00000413  0.0012125 0.0000
  7  -1843.1157665599  -0.000000453095 0.00099438  0.00000747  0.0002096 0.0000
  8  -1843.1157667622  -0.000000202317 0.00035496  0.00000360  0.0001572 0.0000
  9  -1843.1157668431  -0.000000080871 0.00041463  0.00000333  0.0000309 0.0000
 10  -1843.1157667163   0.000000126806 0.00014772  0.00000143  0.0000311 0.0000
 11  -1843.1157666846   0.000000031690 0.00007940  0.00000072  0.0000103 0.0000
 12  -1843.1157666212   0.000000063401 0.00003881  0.00000040  0.0000073 0.0000
 13  -1843.1157666063   0.000000014891 0.00002806  0.00000032  0.0000045 0.0000
 14  -1843.1157666310  -0.000000024728 0.00001145  0.00000015  0.0000012 0.0000
 15  -1843.1157665996   0.000000031439 0.00001722  0.00000022  0.0000019 0.0000
                            ***DIIS convergence achieved***

               *****************************************************
               *                     SUCCESS                       *
               *           SCF CONVERGED AFTER  16 CYCLES          *
               *****************************************************

Setting up the final grid:

General Integration Accuracy     IntAcc      ...  4.670
Radial Grid Type                 RadialGrid  ... Gauss-Chebyshev
Angular Grid (max. acc.)         AngularGrid ... Lebedev-302
Angular grid pruning method      GridPruning ... 3 (G Style)
Weight generation scheme         WeightScheme... Becke
Basis function cutoff            BFCut       ...    1.0000e-11
Integration weight cutoff        WCut        ...    1.0000e-14
Grids for H and He will be reduced by one unit

# of grid points (after initial pruning)     ...  16378 (   0.0 sec)
# of grid points (after weights+screening)   ...  16349 (   0.0 sec)
nearest neighbour list constructed           ...    0.0 sec
Grid point re-assignment to atoms done       ...    0.0 sec
Grid point division into batches done        ...    0.1 sec
Reduced shell lists constructed in    0.1 sec

Total number of grid points                  ...    16349
Total number of batches                      ...      257
Average number of points per batch           ...       63
Average number of grid points per atom       ...     8174
Average number of shells per batch           ...    15.42 (37.60%)
Average number of basis functions per batch  ...    35.75 (25.00%)
Average number of large shells per batch     ...     8.42 (54.59%)
Average number of large basis fcns per batch ...    20.08 (56.18%)
Maximum spatial batch extension              ...  24.49, 24.19, 17.58 au
Average spatial batch extension              ...   0.85,  0.84,  0.65 au

Final grid set up in    0.1 sec
Final integration                            ... done (   0.1 sec)
Change in XC energy                          ...    -0.001295405
Integrated number of electrons               ...    44.000005956
Previous integrated no of electrons          ...    43.999997235
Total Energy       :        -1843.11706196 Eh          -50153.76502 eV
  Last Energy change         ...    4.3489e-08  Tolerance :   1.0000e-08
  Last MAX-Density change    ...    1.8902e-05  Tolerance :   1.0000e-07
             **** THE GBW FILE WAS UPDATED (39_CoCl.gbw) ****
             **** DENSITY FILE WAS UPDATED (39_CoCl.scfp) ****
             **** ENERGY FILE WAS UPDATED (39_CoCl.en.tmp) ****
----------------------
UHF SPIN CONTAMINATION
----------------------

Warning: in a DFT calculation there is little theoretical justification to 
         calculate <S**2> as in Hartree-Fock theory. We will do it anyways
         but you should keep in mind that the values have only limited relevance

Expectation value of <S**2>     :     2.011620
Ideal value S*(S+1) for S=1.0   :     2.000000
Deviation                       :     0.011620

             **** THE GBW FILE WAS UPDATED (39_CoCl.gbw) ****
             **** DENSITY FILE WAS UPDATED (39_CoCl.scfp) ****
Total SCF time: 0 days 0 hours 0 min 3 sec 


-------------------------------------------------------------------------------
                          DFT DISPERSION CORRECTION                            
                                                                               
                              DFTD3 V3.1  Rev 1                                
                          USING Becke-Johnson damping                          
-------------------------------------------------------------------------------
-------------------------   ----------------
Dispersion correction           -0.001459890
-------------------------   ----------------


-------------------------   --------------------
FINAL SINGLE POINT ENERGY     -1843.118521850382
-------------------------   --------------------



[...]
 113   0.0000       3.969704       108.0211 
 114   0.0000       3.970869       108.0528 
 115   0.0000       3.974624       108.1550 
 116   0.0000       4.008345       109.0726 
 117   0.0000       4.013938       109.2248 
 118   0.0000       4.180213       113.7494 
 119   0.0000       4.186712       113.9262 
 120   0.0000       4.330083       117.8275 
 121   0.0000       5.013717       136.4302 
 122   0.0000       5.038535       137.1055 
 123   0.0000       5.233717       142.4167 
 124   0.0000       5.261516       143.1731 
 125   0.0000       5.913134       160.9046 
 126   0.0000       6.405270       174.2962 
 127   0.0000      10.288362       279.9606 
 128   0.0000      10.293860       280.1102 
 129   0.0000      10.299674       280.2684 
 130   0.0000      10.327133       281.0156 
 131   0.0000      10.359093       281.8853 
 132   0.0000      10.402223       283.0589 
 133   0.0000      10.424078       283.6536 
 134   0.0000      11.433632       311.1249 
 135   0.0000      11.437016       311.2170 
 136   0.0000      11.438620       311.2607 
 137   0.0000      11.439667       311.2892 
 138   0.0000      11.459822       311.8376 
 139   0.0000      11.473850       312.2193 
 140   0.0000      11.530569       313.7627 
 141   0.0000      11.556890       314.4790 
 142   0.0000      11.661314       317.3205 

                 SPIN DOWN ORBITALS
  NO   OCC          E(Eh)            E(eV) 
   0   1.0000    -276.650578     -7528.0449 
   1   1.0000    -100.982647     -2747.8775 
   2   1.0000     -32.393342      -881.4676 
   3   1.0000     -28.057370      -763.4798 
   4   1.0000     -28.055395      -763.4261 
   5   1.0000     -28.052702      -763.3528 
   6   1.0000      -9.208982      -250.5891 
   7   1.0000      -6.986803      -190.1206 
   8   1.0000      -6.982291      -189.9978 
   9   1.0000      -6.981895      -189.9870 
  10   1.0000      -3.530763       -96.0770 
  11   1.0000      -2.239281       -60.9339 
  12   1.0000      -2.231720       -60.7282 
  13   1.0000      -2.231343       -60.7179 
  14   1.0000      -0.710893       -19.3444 
  15   1.0000      -0.314771        -8.5654 
  16   1.0000      -0.271321        -7.3830 
  17   1.0000      -0.266441        -7.2502 
  18   1.0000      -0.183472        -4.9925 
  19   1.0000      -0.178579        -4.8594 
  20   1.0000      -0.173165        -4.7121 
  21   0.0000      -0.125294        -3.4094 
  22   0.0000      -0.118215        -3.2168 
  23   0.0000      -0.106261        -2.8915 
  24   0.0000      -0.021512        -0.5854 
  25   0.0000      -0.017504        -0.4763 
  26   0.0000       0.006789         0.1847 
  27   0.0000       0.008615         0.2344 
  28   0.0000       0.035351         0.9619 
  29   0.0000       0.037437         1.0187 
  30   0.0000       0.062884         1.7112 
  31   0.0000       0.064080         1.7437 
  32   0.0000       0.066908         1.8207 
  33   0.0000       0.075144         2.0448 
  34   0.0000       0.077983         2.1220 
  35   0.0000       0.078157         2.1268 
  36   0.0000       0.112450         3.0599 
  37   0.0000       0.116988         3.1834 
  38   0.0000       0.118081         3.2131 
  39   0.0000       0.127397         3.4666 
  40   0.0000       0.192214         5.2304 
  41   0.0000       0.196245         5.3401 
  42   0.0000       0.230372         6.2687 
  43   0.0000       0.248631         6.7656 
  44   0.0000       0.250992         6.8298 
  45   0.0000       0.257695         7.0122 
  46   0.0000       0.294386         8.0107 
  47   0.0000       0.301378         8.2009 
  48   0.0000       0.314613         8.5611 
  49   0.0000       0.326473         8.8838 
  50   0.0000       0.349600         9.5131 
  51   0.0000       0.387078        10.5329 
  52   0.0000       0.388608        10.5746 
  53   0.0000       0.449828        12.2404 
  54   0.0000       0.555559        15.1175 
  55   0.0000       0.570855        15.5338 
  56   0.0000       0.570891        15.5347 
  57   0.0000       0.709575        19.3085 
  58   0.0000       0.735432        20.0121 
  59   0.0000       0.736285        20.0353 
  60   0.0000       0.746929        20.3250 
  61   0.0000       0.748208        20.3598 
  62   0.0000       0.807572        21.9752 
  63   0.0000       0.830354        22.5951 
  64   0.0000       0.835190        22.7267 
  65   0.0000       0.900364        24.5001 
  66   0.0000       0.906980        24.6802 
  67   0.0000       0.936544        25.4847 
  68   0.0000       0.939618        25.5683 
  69   0.0000       0.942516        25.6472 
  70   0.0000       1.060114        28.8472 
  71   0.0000       1.062020        28.8990 
  72   0.0000       1.096134        29.8273 
  73   0.0000       1.104068        30.0432 
  74   0.0000       1.142906        31.1001 
  75   0.0000       1.207165        32.8486 
  76   0.0000       1.210842        32.9487 
  77   0.0000       1.219325        33.1795 
  78   0.0000       1.238088        33.6901 
  79   0.0000       1.239024        33.7156 
  80   0.0000       1.300012        35.3751 
  81   0.0000       1.317820        35.8597 
  82   0.0000       1.490206        40.5506 
  83   0.0000       1.668623        45.4055 
  84   0.0000       1.679488        45.7012 
  85   0.0000       1.974584        53.7312 
  86   0.0000       2.204011        59.9742 
  87   0.0000       2.211057        60.1659 
  88   0.0000       2.329929        63.4006 
  89   0.0000       2.330363        63.4124 
  90   0.0000       2.394002        65.1441 
  91   0.0000       2.409908        65.5769 
  92   0.0000       2.410273        65.5869 
  93   0.0000       2.748912        74.8017 
  94   0.0000       2.748934        74.8023 
  95   0.0000       2.786285        75.8187 
  96   0.0000       2.791596        75.9632 
  97   0.0000       2.821767        76.7842 
  98   0.0000       2.823962        76.8439 
  99   0.0000       2.824149        76.8490 
 100   0.0000       2.929190        79.7073 
 101   0.0000       3.144508        85.5664 
 102   0.0000       3.145097        85.5824 
 103   0.0000       3.189035        86.7781 
 104   0.0000       3.210299        87.3567 
 105   0.0000       3.233300        87.9826 
 106   0.0000       3.286106        89.4195 
 107   0.0000       3.307992        90.0150 
 108   0.0000       3.377667        91.9110 
 109   0.0000       3.380995        92.0016 
 110   0.0000       3.436006        93.4985 
 111   0.0000       3.803344       103.4942 
 112   0.0000       4.010194       109.1229 
 113   0.0000       4.010730       109.1375 
 114   0.0000       4.014494       109.2399 
 115   0.0000       4.017171       109.3128 
 116   0.0000       4.048988       110.1786 
 117   0.0000       4.075160       110.8907 
 118   0.0000       4.211349       114.5966 
 119   0.0000       4.233995       115.2129 
 120   0.0000       4.368883       118.8834 
 121   0.0000       5.077041       138.1533 
 122   0.0000       5.110402       139.0611 
 123   0.0000       5.303731       144.3219 
 124   0.0000       5.333427       145.1299 
 125   0.0000       5.924827       161.2227 
 126   0.0000       6.451661       175.5586 
 127   0.0000      10.387659       282.6626 
 128   0.0000      10.398469       282.9567 
 129   0.0000      10.418278       283.4958 
 130   0.0000      10.443159       284.1728 
 131   0.0000      10.475615       285.0560 
 132   0.0000      10.495715       285.6029 
 133   0.0000      10.520055       286.2652 
 134   0.0000      11.526504       313.6521 
 135   0.0000      11.527880       313.6895 
 136   0.0000      11.528329       313.7018 
 137   0.0000      11.528404       313.7038 
 138   0.0000      11.541029       314.0474 
 139   0.0000      11.551507       314.3325 
 140   0.0000      11.620597       316.2125 
 141   0.0000      11.625413       316.3436 
 142   0.0000      11.738010       319.4075 

                    ********************************
                    * MULLIKEN POPULATION ANALYSIS *
                    ********************************

--------------------------------------------
MULLIKEN ATOMIC CHARGES AND SPIN POPULATIONS
--------------------------------------------
   0 Co:    0.460827    1.972531
   1 Cl:   -0.460827    0.027469
Sum of atomic charges         :   -0.0000000
Sum of atomic spin populations:    2.0000000

-----------------------------------------------------
MULLIKEN REDUCED ORBITAL CHARGES AND SPIN POPULATIONS
-----------------------------------------------------
CHARGE
  0 Cos       :     6.514942  s :     6.514942
      pz      :     4.058139  p :    12.160167
      px      :     4.045936
      py      :     4.056092
      dz2     :     1.596105  d :     7.851203
      dxz     :     1.064713
      dyz     :     1.979598
      dx2y2   :     1.212835
      dxy     :     1.997953
      f0      :     0.003810  f :     0.012465
      f+1     :     0.003875
      f-1     :     0.004587
      f+2     :     0.000079
      f-2     :     0.000063
      f+3     :     0.000012
      f-3     :     0.000040
      g0      :     0.000150  g :     0.000396
      g+1     :     0.000088
      g-1     :     0.000103
      g+2     :     0.000021
      g-2     :     0.000004
      g+3     :     0.000006
      g-3     :     0.000001
      g+4     :     0.000018
      g-4     :     0.000005
  1 Cls       :     5.989852  s :     5.989852
      pz      :     3.617237  p :    11.437218
      px      :     3.875755
      py      :     3.944226
      dz2     :     0.006138  d :     0.030072
      dxz     :     0.008470
      dyz     :     0.013631
      dx2y2   :     0.000551
      dxy     :     0.001282
      f0      :    -0.000185  f :     0.003684
      f+1     :     0.001144
      f-1     :     0.001721
      f+2     :     0.000308
      f-2     :     0.000694
      f+3     :     0.000001
      f-3     :     0.000001

SPIN
  0 Cos       :     0.013707  s :     0.013707
      pz      :     0.002139  p :     0.012367
      px      :     0.006755
      py      :     0.003473
      dz2     :     0.231758  d :     1.946213
      dxz     :     0.925392
      dyz     :     0.003878
      dx2y2   :     0.785027
      dxy     :     0.000158
      f0      :     0.000105  f :     0.000295
      f+1     :     0.000455
      f-1     :    -0.000253
      f+2     :     0.000011
      f-2     :     0.000007
      f+3     :    -0.000003
      f-3     :    -0.000025
      g0      :    -0.000030  g :    -0.000051
      g+1     :     0.000011
      g-1     :    -0.000023
      g+2     :    -0.000008
      g-2     :     0.000004
      g+3     :     0.000003
      g-3     :     0.000000
      g+4     :    -0.000006
      g-4     :    -0.000002
  1 Cls       :    -0.005135  s :    -0.005135
      pz      :    -0.028168  p :     0.031580
      px      :     0.065244
      py      :    -0.005496
      dz2     :     0.000047  d :     0.000900
      dxz     :     0.001950
      dyz     :    -0.001258
      dx2y2   :     0.000308
      dxy     :    -0.000147
      f0      :     0.000002  f :     0.000125
      f+1     :     0.000191
      f-1     :    -0.000295
      f+2     :     0.000245
      f-2     :    -0.000020
      f+3     :     0.000001
      f-3     :     0.000000


                     *******************************
                     * LOEWDIN POPULATION ANALYSIS *
                     *******************************

-------------------------------------------
LOEWDIN ATOMIC CHARGES AND SPIN POPULATIONS
-------------------------------------------
   0 Co:    0.055198    1.938310
   1 Cl:   -0.055198    0.061690

----------------------------------------------------
LOEWDIN REDUCED ORBITAL CHARGES AND SPIN POPULATIONS
----------------------------------------------------
CHARGE
  0 Cos       :     6.460983  s :     6.460983
      pz      :     4.185534  p :    12.359671
      px      :     4.074207
      py      :     4.099929
      dz2     :     1.704309  d :     8.020218
      dxz     :     1.118128
      dyz     :     1.998648
      dx2y2   :     1.208728
      dxy     :     1.990405
      f0      :     0.041736  f :     0.101625
      f+1     :     0.027769
      f-1     :     0.031699
      f+2     :     0.000149
      f-2     :     0.000220
      f+3     :     0.000012
      f-3     :     0.000040
      g0      :     0.001144  g :     0.002305
      g+1     :     0.000523
      g-1     :     0.000583
      g+2     :     0.000022
      g-2     :     0.000004
      g+3     :     0.000006
      g-3     :     0.000001
      g+4     :     0.000018
      g-4     :     0.000005
  1 Cls       :     5.619652  s :     5.619652
      pz      :     3.623726  p :    11.143578
      px      :     3.732684
      py      :     3.787168
      dz2     :     0.101361  d :     0.185158
      dxz     :     0.027473
      dyz     :     0.049336
      dx2y2   :     0.002327
      dxy     :     0.004660
      f0      :     0.047741  f :     0.106810
      f+1     :     0.019197
      f-1     :     0.032596
      f+2     :     0.002568
      f-2     :     0.004706
      f+3     :     0.000001
      f-3     :     0.000001

SPIN
  0 Cos       :     0.006257  s :     0.006257
      pz      :    -0.000167  p :     0.018443
      px      :     0.016662
      py      :     0.001948
      dz2     :     0.224103  d :     1.911363
      dxz     :     0.898754
      dyz     :     0.004903
      dx2y2   :     0.782947
      dxy     :     0.000657
      f0      :    -0.000282  f :     0.002266
      f+1     :     0.003016
      f-1     :    -0.000510
      f+2     :     0.000066
      f-2     :     0.000005
      f+3     :    -0.000003
      f-3     :    -0.000025
      g0      :    -0.000059  g :    -0.000019
      g+1     :     0.000054
      g-1     :     0.000002
      g+2     :    -0.000010
      g-2     :    -0.000000
      g+3     :     0.000003
      g-3     :     0.000000
      g+4     :    -0.000006
      g-4     :    -0.000002
  1 Cls       :    -0.001660  s :    -0.001660
      pz      :    -0.016693  p :     0.035023
      px      :     0.055234
      py      :    -0.003517
      dz2     :     0.002197  d :     0.015266
      dxz     :     0.014737
      dyz     :    -0.002329
      dx2y2   :     0.001113
      dxy     :    -0.000451
      f0      :     0.000729  f :     0.013061
      f+1     :     0.011542
      f-1     :    -0.000471
      f+2     :     0.001468
      f-2     :    -0.000208
      f+3     :     0.000001
      f-3     :     0.000000


                      *****************************
                      * MAYER POPULATION ANALYSIS *
                      *****************************

  NA   - Mulliken gross atomic population
  ZA   - Total nuclear charge
  QA   - Mulliken gross atomic charge
  VA   - Mayer's total valence
  BVA  - Mayer's bonded valence
  FA   - Mayer's free valence

  ATOM       NA         ZA         QA         VA         BVA        FA
  0 Co    26.5392    27.0000     0.4608     3.0315     1.1591     1.8724
  1 Cl    17.4608    17.0000    -0.4608     1.1653     1.1591     0.0062

  Mayer bond orders larger than 0.100000
B(  0-Co,  1-Cl) :   1.1591 

-------
TIMINGS
-------

Total SCF time: 0 days 0 hours 0 min 1 sec 

Total time                  ....       1.623 sec
Sum of individual times     ....       1.455 sec  ( 89.7%)

Fock matrix formation       ....       1.250 sec  ( 77.0%)
  Split-RI-J                ....       0.908 sec  ( 72.6% of F)
  XC integration            ....       0.149 sec  ( 11.9% of F)
    Basis function eval.    ....       0.019 sec  ( 12.8% of XC)
    Density eval.           ....       0.023 sec  ( 15.6% of XC)
    XC-Functional eval.     ....       0.005 sec  (  3.3% of XC)
    XC-Potential eval.      ....       0.058 sec  ( 38.9% of XC)
Diagonalization             ....       0.036 sec  (  2.2%)
Density matrix formation    ....       0.005 sec  (  0.3%)
Population analysis         ....       0.007 sec  (  0.4%)
Initial guess               ....       0.014 sec  (  0.9%)
Orbital Transformation      ....       0.000 sec  (  0.0%)
Orbital Orthonormalization  ....       0.009 sec  (  0.6%)
DIIS solution               ....       0.009 sec  (  0.6%)
Grid generation             ....       0.133 sec  (  8.2%)


-------------------------------------------------------------------------------
                          DFT DISPERSION CORRECTION                            
                                                                               
                              DFTD3 V3.1  Rev 1                                
                          USING Becke-Johnson damping                          
-------------------------------------------------------------------------------
The TPSS functional is recognized
Active option DFTDOPT                   ...         4   

molecular C6(AA) [au] = 587.026616 


            DFT-D V3
 parameters
 s6 scaling factor         :     1.0000 
 a1 scaling factor         :     0.4535 
 s8 scaling factor         :     1.9435 
 a2 scaling factor         :     4.4752 
 ad hoc parameters k1-k3   :    16.0000     1.3333    -4.0000 

 Edisp/kcal,au: -0.917224372786  -0.001461689923 
 E6   /kcal   :  -0.321026165 
 E8   /kcal   :  -0.596198208 
 % E8         :  65.000257928 

-------------------------   ----------------
Dispersion correction           -0.001461690
-------------------------   ----------------


-------------------------   --------------------
FINAL SINGLE POINT ENERGY     -1843.118571113129
-------------------------   --------------------

                                *** OPTIMIZATION RUN DONE ***

                            ***************************************
                            *     ORCA property calculations      *
                            ***************************************

                                    ---------------------
                                    Active property flags
                                    ---------------------
   (+) Dipole Moment


------------------------------------------------------------------------------
                       ORCA ELECTRIC PROPERTIES CALCULATION
------------------------------------------------------------------------------

Dipole Moment Calculation                       ... on
Quadrupole Moment Calculation                   ... off
Polarizability Calculation                      ... off
GBWName                                         ... 39_CoCl.gbw
Electron density file                           ... 39_CoCl.scfp
The origin for moment calculation is the CENTER OF MASS  = ( 0.000000,  0.000000  1.398559)

-------------
DIPOLE MOMENT
-------------
                                X             Y             Z
Electronic contribution:      0.00000       0.00000      -3.66679
Nuclear contribution   :      0.00000       0.00000       1.86529
                        -----------------------------------------
Total Dipole Moment    :      0.00000       0.00000      -1.80150
                        -----------------------------------------
Magnitude (a.u.)       :      1.80150
Magnitude (Debye)      :      4.57905



--------------------
Rotational spectrum 
--------------------
 
Rotational constants in cm-1:     0.000000     0.174373     0.174373 
Rotational constants in MHz :     0.000000  5227.567081  5227.567081 

 Dipole components along the rotational axes: 
x,y,z [a.u.] :    -1.801498     0.000000     0.000000 
x,y,z [Debye]:    -4.579045     0.000000     0.000000 

 

Timings for individual modules:

Sum of individual times         ...       64.098 sec (=   1.068 min)
GTO integral calculation        ...       18.040 sec (=   0.301 min)  28.1 %
SCF iterations                  ...       21.149 sec (=   0.352 min)  33.0 %
SCF Gradient evaluation         ...       24.734 sec (=   0.412 min)  38.6 %
Geometry relaxation             ...        0.176 sec (=   0.003 min)   0.3 %
                             ****ORCA TERMINATED NORMALLY****
TOTAL RUN TIME: 0 days 0 hours 1 minutes 4 seconds 994 msec
