
                                 *****************
                                 * O   R   C   A *
                                 *****************

           --- An Ab Initio, DFT and Semiempirical electronic structure package ---

                  #######################################################
                  #                        -***-                        #
                  #          Department of theory and spectroscopy      #
                  #               Directorship: Frank Neese             #
                  #        Max Planck Institute fuer Kohlenforschung    #
                  #                Kaiser Wilhelm Platz 1               #
                  #                 D-45470 Muelheim/Ruhr               #
                  #                      Germany                        #
                  #                                                     #
                  #                  All rights reserved                #
                  #                        -***-                        #
                  #######################################################


                         Program Version 4.2.0 -  RELEASE  -


 With contributions from (in alphabetic order):
   Daniel Aravena         : Magnetic Suceptibility
   Michael Atanasov       : Ab Initio Ligand Field Theory (pilot matlab implementation)
   Alexander A. Auer      : GIAO ZORA, VPT2
   Ute Becker             : Parallelization
   Giovanni Bistoni       : ED, misc. LED, open-shell LED, HFLED
   Martin Brehm           : Molecular dynamics
   Dmytro Bykov           : SCF Hessian
   Vijay G. Chilkuri      : MRCI spin determinant printing, contributions to CSF-ICE
   Dipayan Datta          : RHF DLPNO-CCSD density
   Achintya Kumar Dutta   : EOM-CC, STEOM-CC
   Dmitry Ganyushin       : Spin-Orbit,Spin-Spin,Magnetic field MRCI
   Miquel Garcia          : C-PCM Hessian, Gaussian charge scheme
   Yang Guo               : DLPNO-NEVPT2, CIM, IAO-localization
   Andreas Hansen         : Spin unrestricted coupled pair/coupled cluster methods
   Benjamin Helmich-Paris : CASSCF linear response (MC-RPA)
   Lee Huntington         : MR-EOM, pCC
   Robert Izsak           : Overlap fitted RIJCOSX, COSX-SCS-MP3, EOM
   Christian Kollmar      : KDIIS, OOCD, Brueckner-CCSD(T), CCSD density
   Simone Kossmann        : Meta GGA functionals, TD-DFT gradient, OOMP2, MP2 Hessian
   Martin Krupicka        : AUTO-CI
   Lucas Lang             : DCDCAS
   Dagmar Lenk            : GEPOL surface, SMD
   Dimitrios Liakos       : Extrapolation schemes; Compound Job, initial MDCI parallelization
   Dimitrios Manganas     : Further ROCIS development; embedding schemes
   Dimitrios Pantazis     : SARC Basis sets
   Taras Petrenko         : DFT Hessian,TD-DFT gradient, ASA, ECA, R-Raman, ABS, FL, XAS/XES, NRVS
   Peter Pinski           : DLPNO-MP2, DLPNO-MP2 Gradient
   Christoph Reimann      : Effective Core Potentials
   Marius Retegan         : Local ZFS, SOC
   Christoph Riplinger    : Optimizer, TS searches, QM/MM, DLPNO-CCSD(T), (RO)-DLPNO pert. Triples
   Tobias Risthaus        : Range-separated hybrids, TD-DFT gradient, RPA, STAB
   Michael Roemelt        : Original ROCIS implementation
   Masaaki Saitow         : Open-shell DLPNO-CCSD energy and density
   Barbara Sandhoefer     : DKH picture change effects
   Avijit Sen             : IP-ROCIS
   Kantharuban Sivalingam : CASSCF convergence, NEVPT2, FIC-MRCI
   Bernardo de Souza      : ESD, SOC TD-DFT
   Georgi Stoychev        : AutoAux, RI-MP2 NMR
   Willem Van den Heuvel  : Paramagnetic NMR
   Boris Wezisla          : Elementary symmetry handling
   Frank Wennmohs         : Technical directorship


 We gratefully acknowledge several colleagues who have allowed us to
 interface, adapt or use parts of their codes:
   Stefan Grimme, W. Hujo, H. Kruse,             : VdW corrections, initial TS optimization,
                  C. Bannwarth                     DFT functionals, gCP, sTDA/sTD-DF
   Ed Valeev, F. Pavosevic, A. Kumar             : LibInt (2-el integral package), F12 methods
   Garnet Chan, S. Sharma, J. Yang, R. Olivares  : DMRG
   Ulf Ekstrom                                   : XCFun DFT Library
   Mihaly Kallay                                 : mrcc  (arbitrary order and MRCC methods)
   Andreas Klamt, Michael Diedenhofen            : otool_cosmo (COSMO solvation model)
   Jiri Pittner, Ondrej Demel                    : Mk-CCSD
   Frank Weinhold                                : gennbo (NPA and NBO analysis)
   Christopher J. Cramer and Donald G. Truhlar   : smd solvation model
   Lars Goerigk                                  : TD-DFT with DH, B97 family of functionals
   V. Asgeirsson, H. Jonsson                     : NEB implementation
   FAccTs GmbH                                   : IRC, NEB, NEB-TS, Multilevel, MM, QM/MM, CI optimization
   S Lehtola, MJT Oliveira, MAL Marques          : LibXC Library


 Your calculation uses the libint2 library for the computation of 2-el integrals
 For citations please refer to: http://libint.valeyev.net

 Your ORCA version has been built with support for libXC version: 4.2.3
 For citations please refer to: https://tddft.org/programs/libxc/

 This ORCA versions uses:
   CBLAS   interface :  Fast vector & matrix operations
   LAPACKE interface :  Fast linear algebra routines
   SCALAPACK package :  Parallel linear algebra routines


Your calculation utilizes the atom-pairwise dispersion correction
with the Becke-Johnson damping scheme (D3BJ)
Cite in your paper:
S.Grimme, S.Ehrlich, L.Goerigk, J Comput Chem, (2011), 32, 1456–1465 
S.Grimme, J.Antony, S.Ehrlich and H.Krieg, J.Chem.Phys., 132, (2010), 154104 
   

----- Orbital basis set information -----
Your calculation utilizes the basis: aug-cc-pVTZ 
    H, B-Ne : Obtained from the ccRepo (grant-hill.group.shef.ac.uk/ccrepo) Feb. 2017
              R. A. Kendall, T. H. Dunning, Jr., R. J. Harrison, J. Chem. Phys. 96, 6796 (1992)
         He : Obtained from the ccRepo (grant-hill.group.shef.ac.uk/ccrepo) Feb. 2017
              D. E. Woon, T. H. Dunning, Jr., J. Chem. Phys. 100, 2975 (1994)
  Li-Be, Na : Obtained from the ccRepo (grant-hill.group.shef.ac.uk/ccrepo) Feb. 2017
              B. P. Prascher, D. E. Woon, K. A. Peterson, T. H. Dunning, Jr., A. K. Wilson, Theor. Chem. Acc. 128, 69 (2011)
         Mg : Obtained from the Peterson Research Group Website (tyr0.chem.wsu.edu/~kipeters) Feb. 2017
              B. P. Prascher, D. E. Woon, K. A. Peterson, T. H. Dunning, Jr., A. K. Wilson, Theor. Chem. Acc. 128, 69 (2011)
      Al-Ar : Obtained from the ccRepo (grant-hill.group.shef.ac.uk/ccrepo) Feb. 2017
              D. E. Woon, T. H. Dunning, Jr., J. Chem. Phys. 98, 1358 (1993)
      Sc-Zn : Obtained from the ccRepo (grant-hill.group.shef.ac.uk/ccrepo) Feb. 2017
              N. B. Balabanov, K. A. Peterson, J. Chem. Phys. 123, 064107 (2005)
              N. B. Balabanov, K. A. Peterson, J. Chem. Phys. 125, 074110 (2006)
      Ga-Kr : Obtained from the ccRepo (grant-hill.group.shef.ac.uk/ccrepo) Feb. 2017
              A. K. Wilson, D. E. Woon, K. A. Peterson, T. H. Dunning, Jr., J. Chem. Phys. 110, 7667 (1999)
     Ag, Au : Obtained from the Peterson Research Group Website (tyr0.chem.wsu.edu/~kipeters) Feb. 2017
              K. A. Peterson, C. Puzzarini, Theor. Chem. Acc. 114, 283 (2005)

----- AuxJ basis set information -----
Your calculation utilizes the auxiliary basis: def2/J
   F. Weigend, Phys. Chem. Chem. Phys. 8, 1057 (2006).

================================================================================
                                        WARNINGS
                       Please study these warnings very carefully!
================================================================================


WARNING: your system is open-shell and RHF/RKS was chosen
  ===> : WILL SWITCH to UHF/UKS


WARNING: Geometry Optimization
  ===> : Switching off AutoStart
         For restart on a previous wavefunction, please use MOREAD

INFO   : the flag for use of LIBINT has been found!

================================================================================
                                       INPUT FILE
================================================================================
NAME = 40_CoBr.in
|  1> #
|  2> # 40_CoBr tpss/aug-cc-pvtz
|  3> #
|  4> ! tpss d3bj aug-cc-pvtz def2/j opt xyzfile
|  5> 
|  6> *xyz 0 3
|  7> Co 0.0 0.0 0.0
|  8> Br 0.0 0.0 2.0
|  9> *
| 10> 
| 11> %pal
| 12> nprocs 24
| 13> end
| 14> 
| 15> 
| 16>                          ****END OF INPUT****
================================================================================

                       *****************************
                       * Geometry Optimization Run *
                       *****************************

Geometry optimization settings:
Update method            Update   .... BFGS
Choice of coordinates    CoordSys .... Z-matrix Internals
Initial Hessian          InHess   .... Almoef's Model

Convergence Tolerances:
Energy Change            TolE     ....  5.0000e-06 Eh
Max. Gradient            TolMAXG  ....  3.0000e-04 Eh/bohr
RMS Gradient             TolRMSG  ....  1.0000e-04 Eh/bohr
Max. Displacement        TolMAXD  ....  4.0000e-03 bohr
RMS Displacement         TolRMSD  ....  2.0000e-03 bohr
Strict Convergence                ....  False
------------------------------------------------------------------------------
                        ORCA OPTIMIZATION COORDINATE SETUP
------------------------------------------------------------------------------

The optimization will be done in new redundant internal coordinates
Making redundant internal coordinates   ...  (new redundants) done
Evaluating the initial hessian          ...  (Almloef) done
Evaluating the coordinates              ...  done
Calculating the B-matrix                .... done
Calculating the G-matrix                .... done
Diagonalizing the G-matrix              .... done
The first mode is                       ....    0
The number of degrees of freedom        ....    1

    -----------------------------------------------------------------
                    Redundant Internal Coordinates


    -----------------------------------------------------------------
         Definition                    Initial Value    Approx d2E/dq
    -----------------------------------------------------------------
      1. B(Br  1,Co  0)                  2.0000         2.260171   
    -----------------------------------------------------------------

Number of atoms                         .... 2
Number of degrees of freedom            .... 1

         *************************************************************
         *                GEOMETRY OPTIMIZATION CYCLE   1            *
         *************************************************************
---------------------------------
CARTESIAN COORDINATES (ANGSTROEM)
---------------------------------
  Co     0.000000    0.000000    0.000000
  Br     0.000000    0.000000    2.000000

----------------------------
CARTESIAN COORDINATES (A.U.)
----------------------------
  NO LB      ZA    FRAG     MASS         X           Y           Z
   0 Co   27.0000    0    58.930    0.000000    0.000000    0.000000
   1 Br   35.0000    0    79.900    0.000000    0.000000    3.779452

--------------------------------
INTERNAL COORDINATES (ANGSTROEM)
--------------------------------
 Co     0   0   0     0.000000000000     0.00000000     0.00000000
 Br     1   0   0     2.000000000000     0.00000000     0.00000000

---------------------------
INTERNAL COORDINATES (A.U.)
---------------------------
 Co     0   0   0     0.000000000000     0.00000000     0.00000000
 Br     1   0   0     3.779452267843     0.00000000     0.00000000

---------------------
BASIS SET INFORMATION
---------------------
There are 2 groups of distinct atoms

 Group   1 Type Co  : 116s77p23d3f2g contracted to 8s7p5d3f2g pattern {19191919191911/151515151511/77711/111/11}
 Group   2 Type Br  : 75s36p10d2f contracted to 7s6p4d2f pattern {18181818111/111111111/7111/11}

Atom   0Co   basis set group =>   1
Atom   1Br   basis set group =>   2
---------------------------------
AUXILIARY/J BASIS SET INFORMATION
---------------------------------
There are 2 groups of distinct atoms

 Group   1 Type Co  : 19s5p5d3f3g contracted to 8s5p5d2f3g pattern {121111111/11111/11111/21/111}
 Group   2 Type Br  : 19s5p5d3f1g contracted to 8s4p3d2f1g pattern {121111111/2111/311/21/1}

Atom   0Co   basis set group =>   1
Atom   1Br   basis set group =>   2


           ************************************************************
           *        Program running with 24 parallel MPI-processes    *
           *              working on a common directory               *
           ************************************************************
------------------------------------------------------------------------------
                           ORCA GTO INTEGRAL CALCULATION
                           -- RI-GTO INTEGRALS CHOSEN --
------------------------------------------------------------------------------

                         BASIS SET STATISTICS AND STARTUP INFO

Gaussian basis set:
 # of primitive gaussian shells          ...  344
 # of primitive gaussian functions       ...  748
 # of contracted shells                  ...   44
 # of contracted basis functions         ...  152
 Highest angular momentum                ...    4
 Maximum contraction depth               ...   19
Auxiliary gaussian basis set:
 # of primitive gaussian shells          ...   68
 # of primitive gaussian functions       ...  196
 # of contracted shells                  ...   41
 # of contracted aux-basis functions     ...  147
 Highest angular momentum                ...    4
 Maximum contraction depth               ...   12
Ratio of auxiliary to basis functions    ...  0.97
Integral package used                  ... LIBINT
 One Electron integrals                  ... done
 Ordering auxiliary basis shells         ... done
 Integral threshhold             Thresh  ...  2.500e-11
 Primitive cut-off               TCut    ...  2.500e-12
 Pre-screening matrix                    ... done
 Shell pair data                         ... 
 Ordering of the shell pairs             ... done (   0.000 sec) 990 of 990 pairs
 Determination of significant pairs      ... done (   0.000 sec)
 Creation of shell pair data             ... done (   0.002 sec)
 Storage of shell pair data              ... done (   0.083 sec)
 Shell pair data done in (   0.085 sec)
 Computing two index integrals           ... done
 Cholesky decomposition of the V-matrix  ... done


Timings:
 Total evaluation time                   ...   3.888 sec (  0.065 min)
 One electron matrix time                ...   0.054 sec (  0.001 min) =  1.4%
 Schwartz matrix evaluation time         ...   3.721 sec (  0.062 min) = 95.7%
 Two index repulsion integral time       ...   0.001 sec (  0.000 min) =  0.0%
 Cholesky decomposition of V             ...   0.001 sec (  0.000 min) =  0.0%
 Three index repulsion integral time     ...   0.000 sec (  0.000 min) =  0.0%



           ************************************************************
           *        Program running with 24 parallel MPI-processes    *
           *              working on a common directory               *
           ************************************************************
-------------------------------------------------------------------------------
                                 ORCA SCF
-------------------------------------------------------------------------------

------------
SCF SETTINGS
------------
Hamiltonian:
 Density Functional     Method          .... DFT(GTOs)
 Exchange Functional    Exchange        .... TPSS
 Correlation Functional Correlation     .... TPSS
 LDA part of GGA corr.  LDAOpt          .... PW91-LDA
 Gradients option       PostSCFGGA      .... off
   Density functional embedding theory  .... OFF
   NL short-range parameter             ....  5.000000
 RI-approximation to the Coulomb term is turned on
   Number of auxiliary basis functions  .... 147


General Settings:
 Integral files         IntName         .... 40_CoBr
 Hartree-Fock type      HFTyp           .... UHF
 Total Charge           Charge          ....    0
 Multiplicity           Mult            ....    3
 Number of Electrons    NEL             ....   62
 Basis Dimension        Dim             ....  152
 Nuclear Repulsion      ENuc            ....    250.0362309218 Eh

Convergence Acceleration:
 DIIS                   CNVDIIS         .... on
   Start iteration      DIISMaxIt       ....    12
   Startup error        DIISStart       ....  0.200000
   # of expansion vecs  DIISMaxEq       ....     5
   Bias factor          DIISBfac        ....   1.050
   Max. coefficient     DIISMaxC        ....  10.000
 Newton-Raphson         CNVNR           .... off
 SOSCF                  CNVSOSCF        .... off
 Level Shifting         CNVShift        .... on
   Level shift para.    LevelShift      ....    0.2500
   Turn off err/grad.   ShiftErr        ....    0.0010
 Zerner damping         CNVZerner       .... off
 Static damping         CNVDamp         .... on
   Fraction old density DampFac         ....    0.7000
   Max. Damping (<1)    DampMax         ....    0.9800
   Min. Damping (>=0)   DampMin         ....    0.0000
   Turn off err/grad.   DampErr         ....    0.1000
 Fernandez-Rico         CNVRico         .... off

SCF Procedure:
 Maximum # iterations   MaxIter         ....   125
 SCF integral mode      SCFMode         .... Direct
   Integral package                     .... LIBINT
 Reset frequency        DirectResetFreq ....    20
 Integral Threshold     Thresh          ....  2.500e-11 Eh
 Primitive CutOff       TCut            ....  2.500e-12 Eh

Convergence Tolerance:
 Convergence Check Mode ConvCheckMode   .... Total+1el-Energy
 Convergence forced     ConvForced      .... 0
 Energy Change          TolE            ....  1.000e-08 Eh
 1-El. energy change                    ....  1.000e-05 Eh
 DIIS Error             TolErr          ....  5.000e-07


Diagonalization of the overlap matrix:
Smallest eigenvalue                        ... 7.009e-05
Time for diagonalization                   ...    0.006 sec
Threshold for overlap eigenvalues          ... 1.000e-08
Number of eigenvalues below threshold      ... 0
Time for construction of square roots      ...    0.003 sec
Total time needed                          ...    0.009 sec

-------------------
DFT GRID GENERATION
-------------------

General Integration Accuracy     IntAcc      ...  4.340
Radial Grid Type                 RadialGrid  ... Gauss-Chebyshev
Angular Grid (max. acc.)         AngularGrid ... Lebedev-110
Angular grid pruning method      GridPruning ... 3 (G Style)
Weight generation scheme         WeightScheme... Becke
Basis function cutoff            BFCut       ...    1.0000e-11
Integration weight cutoff        WCut        ...    1.0000e-14
Grids for H and He will be reduced by one unit

# of grid points (after initial pruning)     ...   5802 (   0.0 sec)
# of grid points (after weights+screening)   ...   5776 (   0.0 sec)
nearest neighbour list constructed           ...    0.0 sec
Grid point re-assignment to atoms done       ...    0.0 sec
Grid point division into batches done        ...    0.0 sec
Reduced shell lists constructed in    0.0 sec

Total number of grid points                  ...     5776
Total number of batches                      ...       91
Average number of points per batch           ...       63
Average number of grid points per atom       ...     2888
Average number of shells per batch           ...    24.80 (56.36%)
Average number of basis functions per batch  ...    74.40 (48.95%)
Average number of large shells per batch     ...    17.20 (69.35%)
Average number of large basis fcns per batch ...    50.00 (67.20%)
Maximum spatial batch extension              ...  18.98, 28.73, 16.15 au
Average spatial batch extension              ...   0.79,  1.06,  0.71 au

Time for grid setup =    0.032 sec

------------------------------
INITIAL GUESS: MODEL POTENTIAL
------------------------------
Loading Hartree-Fock densities                     ... done
Calculating cut-offs                               ... done
Setting up the integral package                    ... done
Initializing the effective Hamiltonian             ... done
Starting the Coulomb interaction                   ... done (   0.0 sec)
Reading the grid                                   ... done
Mapping shells                                     ... done
Starting the XC term evaluation                    ... done (   0.0 sec)
  promolecular density results
     # of electrons  =     61.999945187
     EX              =   -147.077328478
     EC              =     -2.935162314
     EX+EC           =   -150.012490793
Transforming the Hamiltonian                       ... done (   0.0 sec)
Diagonalizing the Hamiltonian                      ... done (   0.0 sec)
Back transforming the eigenvectors                 ... done (   0.0 sec)
Now organizing SCF variables                       ... done
                      ------------------
                      INITIAL GUESS DONE (   0.2 sec)
                      ------------------
--------------
SCF ITERATIONS
--------------
ITER       Energy         Delta-E        Max-DP      RMS-DP      [F,P]     Damp
               ***  Starting incremental Fock matrix formation  ***
  0  -3956.7028599012   0.000000000000 0.64188637  0.00694159  0.4703839 0.7000
  1  -3956.5192764014   0.183583499793 0.18021887  0.00262725  0.3739695 0.7000
  2  -3956.6421925699  -0.122916168561 0.11777121  0.00163101  0.2263581 0.7000
                               ***Turning on DIIS***
  3  -3956.7359382509  -0.093745680970 0.08937674  0.00119962  0.1155084 0.7000
  4  -3956.8007689695  -0.064830718568 0.23720310  0.00289090  0.0427375 0.0000
  5  -3956.9427135150  -0.141944545571 0.03219159  0.00044395  0.0846829 0.0000
  6  -3956.9561252690  -0.013411753952 0.01667556  0.00031802  0.0284492 0.0000
  7  -3956.9599977499  -0.003872480886 0.01360243  0.00021948  0.0217116 0.0000
  8  -3956.9613781476  -0.001380397706 0.00967242  0.00010828  0.0101691 0.0000
  9  -3956.9618487994  -0.000470651787 0.00626490  0.00006399  0.0035102 0.0000
 10  -3956.9619639978  -0.000115198450 0.00411766  0.00003963  0.0018103 0.0000
 11  -3956.9620141079  -0.000050110033 0.00337698  0.00002967  0.0016439 0.0000
 12  -3956.9620437154  -0.000029607555 0.00906881  0.00008543  0.0007167 0.0000
 13  -3956.9620896801  -0.000045964674 0.00186436  0.00002046  0.0005130 0.0000
 14  -3956.9620934904  -0.000003810325 0.00111055  0.00001280  0.0001914 0.0000
 15  -3956.9620955042  -0.000002013818 0.00087371  0.00001010  0.0000977 0.0000
 16  -3956.9620959924  -0.000000488146 0.00051109  0.00000619  0.0000237 0.0000
 17  -3956.9620960844  -0.000000092024 0.00022377  0.00000273  0.0000106 0.0000
 18  -3956.9620960064   0.000000077998 0.00004138  0.00000046  0.0000168 0.0000
 19  -3956.9620960248  -0.000000018362 0.00004057  0.00000050  0.0000042 0.0000
               *** Restarting incremental Fock matrix formation ***
                                   *** Resetting DIIS ***
 20  -3956.9620975344  -0.000001509624 0.00060229  0.00000711  0.0002099 0.0000
 21  -3956.9620976265  -0.000000092120 0.00000857  0.00000014  0.0000043 0.0000
 22  -3956.9620977061  -0.000000079583 0.00000652  0.00000010  0.0000212 0.0000
 23  -3956.9620976484   0.000000057659 0.00000613  0.00000008  0.0000024 0.0000
                            ***DIIS convergence achieved***

               *****************************************************
               *                     SUCCESS                       *
               *           SCF CONVERGED AFTER  24 CYCLES          *
               *****************************************************

Setting up the final grid:

General Integration Accuracy     IntAcc      ...  4.670
Radial Grid Type                 RadialGrid  ... Gauss-Chebyshev
Angular Grid (max. acc.)         AngularGrid ... Lebedev-302
Angular grid pruning method      GridPruning ... 3 (G Style)
Weight generation scheme         WeightScheme... Becke
Basis function cutoff            BFCut       ...    1.0000e-11
Integration weight cutoff        WCut        ...    1.0000e-14
Grids for H and He will be reduced by one unit

# of grid points (after initial pruning)     ...  19256 (   0.0 sec)
# of grid points (after weights+screening)   ...  19227 (   0.0 sec)
nearest neighbour list constructed           ...    0.0 sec
Grid point re-assignment to atoms done       ...    0.0 sec
Grid point division into batches done        ...    0.1 sec
Reduced shell lists constructed in    0.1 sec

Total number of grid points                  ...    19227
Total number of batches                      ...      301
Average number of points per batch           ...       63
Average number of grid points per atom       ...     9614
Average number of shells per batch           ...    18.64 (42.37%)
Average number of basis functions per batch  ...    46.64 (30.69%)
Average number of large shells per batch     ...    10.71 (57.47%)
Average number of large basis fcns per batch ...    24.57 (52.68%)
Maximum spatial batch extension              ...  24.49, 24.19, 17.58 au
Average spatial batch extension              ...   0.85,  0.84,  0.67 au

Final grid set up in    0.2 sec
Final integration                            ... done (   0.0 sec)
Change in XC energy                          ...    -0.004478732
Integrated number of electrons               ...    62.000023472
Previous integrated no of electrons          ...    61.999927744

----------------
TOTAL SCF ENERGY
----------------

Total Energy       :        -3956.96657642 Eh         -107674.53461 eV

Components:
Nuclear Repulsion  :          250.03623092 Eh            6803.83174 eV
Electronic Energy  :        -4207.00280734 Eh         -114478.36636 eV
One Electron Energy:        -5998.82843993 Eh         -163236.42063 eV
Two Electron Energy:         1791.82563259 Eh           48758.05427 eV

Virial components:
Potential Energy   :        -7908.19537919 Eh         -215192.93647 eV
Kinetic Energy     :         3951.22880278 Eh          107518.40185 eV
Virial Ratio       :            2.00145215


DFT components:
N(Alpha)           :       32.000012276065 electrons
N(Beta)            :       30.000011196167 electrons
N(Total)           :       62.000023472232 electrons
E(X)               :     -147.741671376474 Eh       
E(C)               :       -2.948705481622 Eh       
E(XC)              :     -150.690376858097 Eh       
DFET-embed. en.    :        0.000000000000 Eh       

---------------
SCF CONVERGENCE
---------------

  Last Energy change         ...   -3.5296e-08  Tolerance :   1.0000e-08
  Last MAX-Density change    ...    7.4149e-06  Tolerance :   1.0000e-07
  Last RMS-Density change    ...    9.3772e-08  Tolerance :   5.0000e-09
  Last DIIS Error            ...    4.8494e-07  Tolerance :   5.0000e-07

             **** THE GBW FILE WAS UPDATED (40_CoBr.gbw) ****
             **** DENSITY FILE WAS UPDATED (40_CoBr.scfp) ****
             **** ENERGY FILE WAS UPDATED (40_CoBr.en.tmp) ****
----------------------
UHF SPIN CONTAMINATION
----------------------

Warning: in a DFT calculation there is little theoretical justification to 
         calculate <S**2> as in Hartree-Fock theory. We will do it anyways
         but you should keep in mind that the values have only limited relevance

Expectation value of <S**2>     :     2.006441
Ideal value S*(S+1) for S=1.0   :     2.000000
Deviation                       :     0.006441

             **** THE GBW FILE WAS UPDATED (40_CoBr.gbw) ****
             **** DENSITY FILE WAS UPDATED (40_CoBr.scfp) ****
----------------
ORBITAL ENERGIES
----------------
                 SPIN UP ORBITALS
  NO   OCC          E(Eh)            E(eV) 
   0   1.0000    -481.724234    -13108.3828 
   1   1.0000    -276.631515     -7527.5262 
   2   1.0000     -61.937724     -1685.4112 
   3   1.0000     -55.771093     -1517.6086 
   4   1.0000     -55.770107     -1517.5818 
   5   1.0000     -55.770107     -1517.5818 
   6   1.0000     -32.408389      -881.8771 
   7   1.0000     -28.084785      -764.2259 
   8   1.0000     -28.053652      -763.3787 
   9   1.0000     -28.053652      -763.3787 
  10   1.0000      -8.465595      -230.3606 
  11   1.0000      -6.303899      -171.5378 
  12   1.0000      -6.301598      -171.4752 
  13   1.0000      -6.301598      -171.4752 
  14   1.0000      -3.595509       -97.8388 
  15   1.0000      -2.474174       -67.3257 
  16   1.0000      -2.472458       -67.2790 
  17   1.0000      -2.472458       -67.2790 
  18   1.0000      -2.470769       -67.2331 
  19   1.0000      -2.470332       -67.2211 
  20   1.0000      -2.348131       -63.8959 
  21   1.0000      -2.274530       -61.8931 
  22   1.0000      -2.274530       -61.8931 
  23   1.0000      -0.702830       -19.1250 
  24   1.0000      -0.329795        -8.9742 
  25   1.0000      -0.299548        -8.1511 
  26   1.0000      -0.299548        -8.1511 
  27   1.0000      -0.217157        -5.9091 
  28   1.0000      -0.217157        -5.9091 
  29   1.0000      -0.199840        -5.4379 
  30   1.0000      -0.180735        -4.9181 
  31   1.0000      -0.180345        -4.9074 
  32   0.0000      -0.119807        -3.2601 
  33   0.0000      -0.015342        -0.4175 
  34   0.0000      -0.015342        -0.4175 
  35   0.0000       0.005362         0.1459 
  36   0.0000       0.009467         0.2576 
  37   0.0000       0.034715         0.9446 
  38   0.0000       0.034715         0.9446 
  39   0.0000       0.053603         1.4586 
  40   0.0000       0.065054         1.7702 
  41   0.0000       0.065211         1.7745 
  42   0.0000       0.075951         2.0667 
  43   0.0000       0.075951         2.0667 
  44   0.0000       0.076475         2.0810 
  45   0.0000       0.097620         2.6564 
  46   0.0000       0.097620         2.6564 
  47   0.0000       0.104507         2.8438 
  48   0.0000       0.123516         3.3610 
  49   0.0000       0.188357         5.1254 
  50   0.0000       0.188357         5.1254 
  51   0.0000       0.193764         5.2726 
  52   0.0000       0.193770         5.2727 
  53   0.0000       0.193947         5.2776 
  54   0.0000       0.229891         6.2556 
  55   0.0000       0.271327         7.3832 
  56   0.0000       0.271327         7.3832 
  57   0.0000       0.313857         8.5405 
  58   0.0000       0.313880         8.5411 
  59   0.0000       0.317940         8.6516 
  60   0.0000       0.363134         9.8814 
  61   0.0000       0.363134         9.8814 
  62   0.0000       0.439303        11.9540 
  63   0.0000       0.439303        11.9540 
  64   0.0000       0.480129        13.0650 
  65   0.0000       0.506458        13.7814 
  66   0.0000       0.590292        16.0626 
  67   0.0000       0.601488        16.3673 
  68   0.0000       0.602046        16.3825 
  69   0.0000       0.635945        17.3050 
  70   0.0000       0.635945        17.3050 
  71   0.0000       0.650984        17.7142 
  72   0.0000       0.749230        20.3876 
  73   0.0000       0.749230        20.3876 
  74   0.0000       0.769732        20.9455 
  75   0.0000       0.769868        20.9492 
  76   0.0000       0.816201        22.2099 
  77   0.0000       0.816201        22.2099 
  78   0.0000       0.886699        24.1283 
  79   0.0000       0.963604        26.2210 
  80   0.0000       0.963604        26.2210 
  81   0.0000       1.021591        27.7989 
  82   0.0000       1.021591        27.7989 
  83   0.0000       1.084051        29.4985 
  84   0.0000       1.179780        32.1034 
  85   0.0000       1.179804        32.1041 
  86   0.0000       1.207173        32.8488 
  87   0.0000       1.207173        32.8488 
  88   0.0000       1.257929        34.2300 
  89   0.0000       1.271711        34.6050 
  90   0.0000       1.272162        34.6173 
  91   0.0000       1.385091        37.6902 
  92   0.0000       1.569753        42.7152 
  93   0.0000       1.569753        42.7152 
  94   0.0000       1.838763        50.0353 
  95   0.0000       1.877026        51.0765 
  96   0.0000       1.877026        51.0765 
  97   0.0000       1.963444        53.4280 
  98   0.0000       1.966958        53.5236 
  99   0.0000       1.995704        54.3059 
 100   0.0000       1.995704        54.3059 
 101   0.0000       2.019383        54.9502 
 102   0.0000       2.021168        54.9988 
 103   0.0000       2.021365        55.0041 
 104   0.0000       2.021365        55.0041 
 105   0.0000       2.026390        55.1409 
 106   0.0000       2.187673        59.5296 
 107   0.0000       2.187673        59.5296 
 108   0.0000       2.233399        60.7739 
 109   0.0000       2.791029        75.9478 
 110   0.0000       3.144753        85.5731 
 111   0.0000       3.144753        85.5731 
 112   0.0000       3.163626        86.0866 
 113   0.0000       3.163818        86.0919 
 114   0.0000       3.200488        87.0897 
 115   0.0000       3.256068        88.6021 
 116   0.0000       3.256068        88.6021 
 117   0.0000       3.326287        90.5129 
 118   0.0000       3.364327        91.5480 
 119   0.0000       3.364327        91.5480 
 120   0.0000       3.836876       104.4067 
 121   0.0000       3.983245       108.3896 
 122   0.0000       3.983245       108.3896 
 123   0.0000       4.012854       109.1953 
 124   0.0000       4.012987       109.1989 
 125   0.0000       4.015152       109.2578 
 126   0.0000       4.021092       109.4195 
 127   0.0000       4.062505       110.5464 
 128   0.0000       4.201153       114.3192 
 129   0.0000       4.201153       114.3192 
 130   0.0000       4.815887       131.0469 
 131   0.0000       5.074201       138.0760 
 132   0.0000       5.075222       138.1038 
 133   0.0000       5.342560       145.3784 
 134   0.0000       5.342560       145.3784 
 135   0.0000       6.572555       178.8483 
 136   0.0000      10.322601       280.8923 
 137   0.0000      10.323239       280.9096 
 138   0.0000      10.362310       281.9728 
 139   0.0000      10.362310       281.9728 
 140   0.0000      10.385273       282.5977 
 141   0.0000      10.385273       282.5977 
 142   0.0000      10.441474       284.1270 
 143   0.0000      11.453097       311.6546 
 144   0.0000      11.453097       311.6546 
 145   0.0000      11.458960       311.8142 
 146   0.0000      11.461975       311.8962 
 147   0.0000      11.511557       313.2454 
 148   0.0000      11.513998       313.3118 
 149   0.0000      11.570486       314.8489 
 150   0.0000      11.570486       314.8489 
 151   0.0000      11.676793       317.7417 

                 SPIN DOWN ORBITALS
  NO   OCC          E(Eh)            E(eV) 
   0   1.0000    -481.723891    -13108.3735 
   1   1.0000    -276.631127     -7527.5156 
   2   1.0000     -61.937597     -1685.4077 
   3   1.0000     -55.771008     -1517.6063 
   4   1.0000     -55.769689     -1517.5704 
   5   1.0000     -55.769689     -1517.5704 
   6   1.0000     -32.377112      -881.0260 
   7   1.0000     -28.051381      -763.3169 
   8   1.0000     -28.032329      -762.7985 
   9   1.0000     -28.032329      -762.7985 
  10   1.0000      -8.465105      -230.3472 
  11   1.0000      -6.303757      -171.5339 
  12   1.0000      -6.300832      -171.4543 
  13   1.0000      -6.300832      -171.4543 
  14   1.0000      -3.517394       -95.7131 
  15   1.0000      -2.473699       -67.3128 
  16   1.0000      -2.471922       -67.2644 
  17   1.0000      -2.471922       -67.2644 
  18   1.0000      -2.469660       -67.2029 
  19   1.0000      -2.469222       -67.1910 
  20   1.0000      -2.245159       -61.0939 
  21   1.0000      -2.209537       -60.1246 
  22   1.0000      -2.209537       -60.1246 
  23   1.0000      -0.697688       -18.9851 
  24   1.0000      -0.322539        -8.7767 
  25   1.0000      -0.272838        -7.4243 
  26   1.0000      -0.272838        -7.4243 
  27   1.0000      -0.186977        -5.0879 
  28   1.0000      -0.140877        -3.8335 
  29   1.0000      -0.140830        -3.8322 
  30   0.0000      -0.117694        -3.2026 
  31   0.0000      -0.117694        -3.2026 
  32   0.0000      -0.101695        -2.7673 
  33   0.0000      -0.011729        -0.3192 
  34   0.0000      -0.011729        -0.3192 
  35   0.0000       0.007387         0.2010 
  36   0.0000       0.011838         0.3221 
  37   0.0000       0.036688         0.9983 
  38   0.0000       0.036688         0.9983 
  39   0.0000       0.055139         1.5004 
  40   0.0000       0.065641         1.7862 
  41   0.0000       0.065862         1.7922 
  42   0.0000       0.077575         2.1109 
  43   0.0000       0.077575         2.1109 
  44   0.0000       0.079050         2.1510 
  45   0.0000       0.101301         2.7565 
  46   0.0000       0.101301         2.7565 
  47   0.0000       0.108985         2.9656 
  48   0.0000       0.126554         3.4437 
  49   0.0000       0.192923         5.2497 
  50   0.0000       0.192923         5.2497 
  51   0.0000       0.196270         5.3408 
  52   0.0000       0.197544         5.3755 
  53   0.0000       0.197559         5.3759 
  54   0.0000       0.238141         6.4802 
  55   0.0000       0.282465         7.6863 
  56   0.0000       0.282465         7.6863 
  57   0.0000       0.317626         8.6430 
  58   0.0000       0.317641         8.6434 
  59   0.0000       0.320756         8.7282 
  60   0.0000       0.370314        10.0767 
  61   0.0000       0.370314        10.0767 
  62   0.0000       0.443665        12.0727 
  63   0.0000       0.443665        12.0727 
  64   0.0000       0.483869        13.1667 
  65   0.0000       0.519295        14.1307 
  66   0.0000       0.594955        16.1896 
  67   0.0000       0.606817        16.5123 
  68   0.0000       0.607398        16.5281 
  69   0.0000       0.639741        17.4082 
  70   0.0000       0.639741        17.4082 
  71   0.0000       0.666293        18.1308 
  72   0.0000       0.754451        20.5296 
  73   0.0000       0.754451        20.5296 
  74   0.0000       0.776557        21.1312 
  75   0.0000       0.776726        21.1358 
  76   0.0000       0.832312        22.6484 
  77   0.0000       0.832312        22.6484 
  78   0.0000       0.900015        24.4906 
  79   0.0000       0.978637        26.6301 
  80   0.0000       0.978637        26.6301 
  81   0.0000       1.024127        27.8679 
  82   0.0000       1.024127        27.8679 
  83   0.0000       1.092685        29.7335 
  84   0.0000       1.209512        32.9125 
  85   0.0000       1.209670        32.9168 
  86   0.0000       1.242781        33.8178 
  87   0.0000       1.242781        33.8178 
  88   0.0000       1.273043        34.6413 
  89   0.0000       1.285418        34.9780 
  90   0.0000       1.285775        34.9877 
  91   0.0000       1.393064        37.9072 
  92   0.0000       1.598276        43.4913 
  93   0.0000       1.598276        43.4913 
  94   0.0000       1.845436        50.2169 
  95   0.0000       1.885083        51.2957 
  96   0.0000       1.885083        51.2957 
  97   0.0000       1.969135        53.5829 
  98   0.0000       1.973159        53.6924 
  99   0.0000       2.003772        54.5254 
 100   0.0000       2.003772        54.5254 
 101   0.0000       2.024972        55.1023 
 102   0.0000       2.025523        55.1173 
 103   0.0000       2.025523        55.1173 
 104   0.0000       2.026402        55.1412 
 105   0.0000       2.032610        55.3101 
 106   0.0000       2.198013        59.8110 
 107   0.0000       2.198013        59.8110 
 108   0.0000       2.243084        61.0374 
 109   0.0000       2.820465        76.7488 
 110   0.0000       3.165263        86.1312 
 111   0.0000       3.165263        86.1312 
 112   0.0000       3.238979        88.1371 
 113   0.0000       3.239084        88.1400 
 114   0.0000       3.258609        88.6713 
 115   0.0000       3.312612        90.1408 
 116   0.0000       3.312612        90.1408 
 117   0.0000       3.352640        91.2300 
 118   0.0000       3.404117        92.6307 
 119   0.0000       3.404117        92.6307 
 120   0.0000       3.874482       105.4300 
 121   0.0000       4.025877       109.5497 
 122   0.0000       4.031443       109.7011 
 123   0.0000       4.037661       109.8703 
 124   0.0000       4.037661       109.8703 
 125   0.0000       4.071263       110.7847 
 126   0.0000       4.071583       110.7934 
 127   0.0000       4.086566       111.2011 
 128   0.0000       4.243147       115.4619 
 129   0.0000       4.243147       115.4619 
 130   0.0000       4.829275       131.4113 
 131   0.0000       5.115263       139.1934 
 132   0.0000       5.115633       139.2035 
 133   0.0000       5.432682       147.8308 
 134   0.0000       5.432682       147.8308 
 135   0.0000       6.622581       180.2096 
 136   0.0000      10.417068       283.4628 
 137   0.0000      10.417068       283.4628 
 138   0.0000      10.462722       284.7051 
 139   0.0000      10.463066       284.7145 
 140   0.0000      10.492327       285.5107 
 141   0.0000      10.492327       285.5107 
 142   0.0000      10.514250       286.1073 
 143   0.0000      11.544032       314.1291 
 144   0.0000      11.544032       314.1291 
 145   0.0000      11.551557       314.3338 
 146   0.0000      11.554738       314.4204 
 147   0.0000      11.557622       314.4989 
 148   0.0000      11.559919       314.5614 
 149   0.0000      11.647984       316.9577 
 150   0.0000      11.647984       316.9577 
 151   0.0000      11.747577       319.6678 

                    ********************************
                    * MULLIKEN POPULATION ANALYSIS *
                    ********************************

--------------------------------------------
MULLIKEN ATOMIC CHARGES AND SPIN POPULATIONS
--------------------------------------------
   0 Co:    0.196177    1.840596
   1 Br:   -0.196177    0.159404
Sum of atomic charges         :    0.0000000
Sum of atomic spin populations:    2.0000000

-----------------------------------------------------
MULLIKEN REDUCED ORBITAL CHARGES AND SPIN POPULATIONS
-----------------------------------------------------
CHARGE
  0 Cos       :     6.598968  s :     6.598968
      pz      :     4.087101  p :    12.201828
      px      :     4.057364
      py      :     4.057364
      dz2     :     1.799516  d :     7.986542
      dxz     :     1.100121
      dyz     :     1.100121
      dx2y2   :     1.993382
      dxy     :     1.993403
      f0      :     0.004459  f :     0.015407
      f+1     :     0.005448
      f-1     :     0.005448
      f+2     :     0.000027
      f-2     :     0.000025
      f+3     :     0.000000
      f-3     :     0.000000
      g0      :     0.000489  g :     0.001078
      g+1     :     0.000244
      g-1     :     0.000244
      g+2     :     0.000050
      g-2     :     0.000052
      g+3     :     0.000000
      g-3     :     0.000000
      g+4     :     0.000000
      g-4     :     0.000000
  1 Brs       :     8.019122  s :     8.019122
      pz      :     5.487650  p :    17.134817
      px      :     5.823584
      py      :     5.823584
      dz2     :     2.001544  d :    10.033788
      dxz     :     2.011565
      dyz     :     2.011565
      dx2y2   :     2.004565
      dxy     :     2.004549
      f0      :     0.001152  f :     0.008450
      f+1     :     0.001675
      f-1     :     0.001675
      f+2     :     0.001977
      f-2     :     0.001971
      f+3     :     0.000000
      f-3     :     0.000000

SPIN
  0 Cos       :     0.035186  s :     0.035186
      pz      :     0.008946  p :     0.020469
      px      :     0.005761
      py      :     0.005761
      dz2     :     0.023114  d :     1.783289
      dxz     :     0.879276
      dyz     :     0.879276
      dx2y2   :     0.000811
      dxy     :     0.000811
      f0      :     0.000444  f :     0.001630
      f+1     :     0.000607
      f-1     :     0.000607
      f+2     :    -0.000014
      f-2     :    -0.000014
      f+3     :     0.000000
      f-3     :     0.000000
      g0      :    -0.000124  g :     0.000022
      g+1     :     0.000022
      g-1     :     0.000022
      g+2     :     0.000050
      g-2     :     0.000053
      g+3     :     0.000000
      g-3     :     0.000000
      g+4     :     0.000000
      g-4     :     0.000000
  1 Brs       :    -0.020165  s :    -0.020165
      pz      :    -0.046583  p :     0.173072
      px      :     0.109827
      py      :     0.109827
      dz2     :    -0.000987  d :     0.005556
      dxz     :     0.004099
      dyz     :     0.004099
      dx2y2   :    -0.000825
      dxy     :    -0.000829
      f0      :     0.000167  f :     0.000941
      f+1     :     0.000408
      f-1     :     0.000408
      f+2     :    -0.000022
      f-2     :    -0.000020
      f+3     :     0.000000
      f-3     :     0.000000


                     *******************************
                     * LOEWDIN POPULATION ANALYSIS *
                     *******************************

-------------------------------------------
LOEWDIN ATOMIC CHARGES AND SPIN POPULATIONS
-------------------------------------------
   0 Co:   -0.220474    1.779474
   1 Br:    0.220474    0.220526

----------------------------------------------------
LOEWDIN REDUCED ORBITAL CHARGES AND SPIN POPULATIONS
----------------------------------------------------
CHARGE
  0 Cos       :     6.448042  s :     6.448042
      pz      :     4.240982  p :    12.433464
      px      :     4.096241
      py      :     4.096241
      dz2     :     1.920482  d :     8.215289
      dxz     :     1.170765
      dyz     :     1.170765
      dx2y2   :     1.976627
      dxy     :     1.976650
      f0      :     0.044252  f :     0.120355
      f+1     :     0.037867
      f-1     :     0.037867
      f+2     :     0.000185
      f-2     :     0.000184
      f+3     :     0.000000
      f-3     :     0.000000
      g0      :     0.001487  g :     0.003323
      g+1     :     0.000878
      g-1     :     0.000878
      g+2     :     0.000038
      g-2     :     0.000040
      g+3     :     0.000000
      g-3     :     0.000000
      g+4     :     0.000000
      g-4     :     0.000000
  1 Brs       :     7.521302  s :     7.521302
      pz      :     5.610772  p :    16.850191
      px      :     5.619710
      py      :     5.619710
      dz2     :     2.131392  d :    10.235838
      dxz     :     2.041138
      dyz     :     2.041138
      dx2y2   :     2.011092
      dxy     :     2.011078
      f0      :     0.081289  f :     0.172195
      f+1     :     0.033400
      f-1     :     0.033400
      f+2     :     0.012058
      f-2     :     0.012047
      f+3     :     0.000000
      f-3     :     0.000000

SPIN
  0 Cos       :     0.000952  s :     0.000952
      pz      :    -0.002154  p :     0.050885
      px      :     0.026519
      py      :     0.026519
      dz2     :     0.018904  d :     1.718602
      dxz     :     0.847450
      dyz     :     0.847450
      dx2y2   :     0.002389
      dxy     :     0.002410
      f0      :    -0.000055  f :     0.009043
      f+1     :     0.004478
      f-1     :     0.004478
      f+2     :     0.000072
      f-2     :     0.000071
      f+3     :     0.000000
      f-3     :     0.000000
      g0      :    -0.000157  g :    -0.000008
      g+1     :     0.000044
      g-1     :     0.000044
      g+2     :     0.000029
      g-2     :     0.000031
      g+3     :     0.000000
      g-3     :     0.000000
      g+4     :     0.000000
      g-4     :     0.000000
  1 Brs       :    -0.001812  s :    -0.001812
      pz      :    -0.014904  p :     0.151540
      px      :     0.083222
      py      :     0.083222
      dz2     :    -0.000314  d :     0.042297
      dxz     :     0.023044
      dyz     :     0.023044
      dx2y2   :    -0.001731
      dxy     :    -0.001747
      f0      :    -0.000462  f :     0.028501
      f+1     :     0.015243
      f-1     :     0.015243
      f+2     :    -0.000758
      f-2     :    -0.000765
      f+3     :     0.000000
      f-3     :     0.000000


                      *****************************
                      * MAYER POPULATION ANALYSIS *
                      *****************************

  NA   - Mulliken gross atomic population
  ZA   - Total nuclear charge
  QA   - Mulliken gross atomic charge
  VA   - Mayer's total valence
  BVA  - Mayer's bonded valence
  FA   - Mayer's free valence

  ATOM       NA         ZA         QA         VA         BVA        FA
  0 Co    26.8038    27.0000     0.1962     3.4111     1.7966     1.6145
  1 Br    35.1962    35.0000    -0.1962     1.8326     1.7966     0.0360

  Mayer bond orders larger than 0.100000
B(  0-Co,  1-Br) :   1.7966 

-------
TIMINGS
-------

Total SCF time: 0 days 0 hours 0 min 4 sec 

Total time                  ....       4.680 sec
Sum of individual times     ....       4.484 sec  ( 95.8%)

Fock matrix formation       ....       3.947 sec  ( 84.3%)
  Split-RI-J                ....       3.297 sec  ( 83.5% of F)
  XC integration            ....       0.545 sec  ( 13.8% of F)
    Basis function eval.    ....       0.058 sec  ( 10.6% of XC)
    Density eval.           ....       0.067 sec  ( 12.3% of XC)
    XC-Functional eval.     ....       0.014 sec  (  2.5% of XC)
    XC-Potential eval.      ....       0.188 sec  ( 34.5% of XC)
Diagonalization             ....       0.136 sec  (  2.9%)
Density matrix formation    ....       0.017 sec  (  0.4%)
Population analysis         ....       0.007 sec  (  0.2%)
Initial guess               ....       0.144 sec  (  3.1%)
Orbital Transformation      ....       0.000 sec  (  0.0%)
Orbital Orthonormalization  ....       0.000 sec  (  0.0%)
DIIS solution               ....       0.048 sec  (  1.0%)
Grid generation             ....       0.185 sec  (  3.9%)


-------------------------------------------------------------------------------
                          DFT DISPERSION CORRECTION                            
                                                                               
                              DFTD3 V3.1  Rev 1                                
                          USING Becke-Johnson damping                          
-------------------------------------------------------------------------------
The TPSS functional is recognized
Active option DFTDOPT                   ...         4   

molecular C6(AA) [au] = 761.756145 


            DFT-D V3
 parameters
 s6 scaling factor         :     1.0000 
 a1 scaling factor         :     0.4535 
 s8 scaling factor         :     1.9435 
 a2 scaling factor         :     4.4752 
 ad hoc parameters k1-k3   :    16.0000     1.3333    -4.0000 

 Edisp/kcal,au: -1.024609414580  -0.001632818862 
 E6   /kcal   :  -0.333559760 
 E8   /kcal   :  -0.691049654 
 % E8         :  67.445179070 

-------------------------   ----------------
Dispersion correction           -0.001632819
-------------------------   ----------------


-------------------------   --------------------
FINAL SINGLE POINT ENERGY     -3956.968209234620
-------------------------   --------------------



           ************************************************************
           *        Program running with 24 parallel MPI-processes    *
           *              working on a common directory               *
           ************************************************************
------------------------------------------------------------------------------
                         ORCA SCF GRADIENT CALCULATION
------------------------------------------------------------------------------

Gradient of the Kohn-Sham DFT energy:
Kohn-Sham wavefunction type      ... UKS
Hartree-Fock exchange scaling    ...    0.000
Number of operators              ...    2
Number of atoms                  ...    2
Basis set dimensions             ...  152
Integral neglect threshold       ... 2.5e-11
Integral primitive cutoff        ... 2.5e-12

Nuclear repulsion gradient       ... done
One Electron Gradient            ... done
Pre-screening matrix             ... done
RI-J gradient                    ... done
Exchange-correlation gradient    ... done
Dispersion correction            ... done

------------------
CARTESIAN GRADIENT
------------------

   1   Co  :    0.000000004   -0.000000002    0.075540773
   2   Br  :    0.000000003    0.000000017   -0.075705497

Difference to translation invariance:
           :    0.0000000060    0.0000000149   -0.0001647237

Norm of the cartesian gradient     ...    0.1069473267
RMS gradient                       ...    0.0436610633
MAX gradient                       ...    0.0757054969

-------
TIMINGS
-------

Total SCF gradient time            ...        4.593 sec

One electron gradient       ....       0.056 sec  (  1.2%)
Prescreening matrices       ....       3.609 sec  ( 78.6%)
RI-J Coulomb gradient       ....       0.310 sec  (  6.7%)
XC gradient                 ....       0.080 sec  (  1.7%)
------------------------------------------------------------------------------
                         ORCA GEOMETRY RELAXATION STEP
------------------------------------------------------------------------------

Reading the OPT-File                    .... done
Getting information on internals        .... done
Copying old internal coords+grads       .... done
Making the new internal coordinates     .... (new redundants).... done
Validating the new internal coordinates .... (new redundants).... done
Calculating the B-matrix                .... done
Calculating the G,G- and P matrices     .... done
Transforming gradient to internals      .... done
Projecting the internal gradient        .... done
Number of atoms                         ....   2
Number of internal coordinates          ....   1
Current Energy                          .... -3956.968209235 Eh
Current gradient norm                   ....     0.106947327 Eh/bohr
Maximum allowed component of the step   ....  0.300
Current trust radius                    ....  0.300
Evaluating the initial hessian          ....  (Almloef) done
Projecting the Hessian                  .... done
Forming the augmented Hessian           .... done
Diagonalizing the augmented Hessian     .... done
Last element of RFO vector              ....  0.999441964
Lowest eigenvalues of augmented Hessian:
 -0.002527451
Length of the computed step             ....  0.033421665
The final length of the internal step   ....  0.033421665
Converting the step to cartesian space:
 Initial RMS(Int)=    0.0334216646
Transforming coordinates:
 Iter   0:  RMS(Cart)=    0.0096480035 RMS(Int)=    0.0334216646
 Iter   1:  RMS(Cart)=    0.0000000000 RMS(Int)=    0.0000000000
done
Storing new coordinates                 .... done

                                .--------------------.
          ----------------------|Geometry convergence|-------------------------
          Item                value                   Tolerance       Converged
          ---------------------------------------------------------------------
          RMS gradient        0.0756231351            0.0001000000      NO
          MAX gradient        0.0756231351            0.0003000000      NO
          RMS step            0.0334216646            0.0020000000      NO
          MAX step            0.0334216646            0.0040000000      NO
          ........................................................
          Max(Bonds)      0.0177      Max(Angles)    0.00
          Max(Dihed)        0.00      Max(Improp)    0.00
          ---------------------------------------------------------------------

The optimization has not yet converged - more geometry cycles are needed


    ---------------------------------------------------------------------------
                         Redundant Internal Coordinates
                            (Angstroem and degrees)

        Definition                    Value    dE/dq     Step     New-Value
    ----------------------------------------------------------------------------
     1. B(Br  1,Co  0)                2.0000 -0.075623  0.0177    2.0177   
    ----------------------------------------------------------------------------

         *************************************************************
         *                GEOMETRY OPTIMIZATION CYCLE   2            *
         *************************************************************
---------------------------------
CARTESIAN COORDINATES (ANGSTROEM)
---------------------------------
  Co     0.000000    0.000000   -0.008843
  Br     0.000000    0.000000    2.008843

----------------------------
CARTESIAN COORDINATES (A.U.)
----------------------------
  NO LB      ZA    FRAG     MASS         X           Y           Z
   0 Co   27.0000    0    58.930    0.000000    0.000000   -0.016711
   1 Br   35.0000    0    79.900    0.000000    0.000000    3.796163

--------------------------------
INTERNAL COORDINATES (ANGSTROEM)
--------------------------------
 Co     0   0   0     0.000000000000     0.00000000     0.00000000
 Br     1   0   0     2.017685983160     0.00000000     0.00000000

---------------------------
INTERNAL COORDINATES (A.U.)
---------------------------
 Co     0   0   0     0.000000000000     0.00000000     0.00000000
 Br     1   0   0     3.812873932423     0.00000000     0.00000000



           ************************************************************
           *        Program running with 24 parallel MPI-processes    *
           *              working on a common directory               *
           ************************************************************
 One Electron integrals                  ... done
 Pre-screening matrix                    ... done


           ************************************************************
           *        Program running with 24 parallel MPI-processes    *
           *              working on a common directory               *
           ************************************************************

Diagonalization of the overlap matrix:
Smallest eigenvalue                        ... 7.196e-05
Time for diagonalization                   ...    0.006 sec
Threshold for overlap eigenvalues          ... 1.000e-08
Number of eigenvalues below threshold      ... 0
Time for construction of square roots      ...    0.002 sec
Total time needed                          ...    0.008 sec

-------------------
DFT GRID GENERATION
-------------------

General Integration Accuracy     IntAcc      ...  4.340
Radial Grid Type                 RadialGrid  ... Gauss-Chebyshev
Angular Grid (max. acc.)         AngularGrid ... Lebedev-110
Angular grid pruning method      GridPruning ... 3 (G Style)
Weight generation scheme         WeightScheme... Becke
Basis function cutoff            BFCut       ...    1.0000e-11
Integration weight cutoff        WCut        ...    1.0000e-14
Grids for H and He will be reduced by one unit

# of grid points (after initial pruning)     ...   5802 (   0.0 sec)
# of grid points (after weights+screening)   ...   5776 (   0.0 sec)
nearest neighbour list constructed           ...    0.0 sec
Grid point re-assignment to atoms done       ...    0.0 sec
Grid point division into batches done        ...    0.0 sec
Reduced shell lists constructed in    0.0 sec

Total number of grid points                  ...     5776
Total number of batches                      ...       91
Average number of points per batch           ...       63
Average number of grid points per atom       ...     2888
Average number of shells per batch           ...    24.80 (56.36%)
Average number of basis functions per batch  ...    74.40 (48.95%)
Average number of large shells per batch     ...    17.20 (69.35%)
Average number of large basis fcns per batch ...    50.00 (67.20%)
Maximum spatial batch extension              ...  18.98, 28.73, 16.15 au
Average spatial batch extension              ...   0.79,  1.06,  0.71 au

Time for grid setup =    0.029 sec

--------------
SCF ITERATIONS
--------------
ITER       Energy         Delta-E        Max-DP      RMS-DP      [F,P]     Damp
               ***  Starting incremental Fock matrix formation  ***
  0  -3956.9644762896   0.000000000000 0.00139669  0.00003195  0.0114221 0.7000
  1  -3956.9644937032  -0.000017413623 0.00101637  0.00002537  0.0080089 0.7000
                               ***Turning on DIIS***
  2  -3956.9645068018  -0.000013098544 0.00245513  0.00006150  0.0056061 0.0000
  3  -3956.9645338812  -0.000027079465 0.00080236  0.00001572  0.0007373 0.0000
  4  -3956.9645354479  -0.000001566686 0.00041572  0.00000888  0.0008626 0.0000
  5  -3956.9645377809  -0.000002332964 0.00030106  0.00000362  0.0007196 0.0000
  6  -3956.9645374734   0.000000307480 0.00008539  0.00000190  0.0002831 0.0000
  7  -3956.9645375695  -0.000000096142 0.00012166  0.00000142  0.0000610 0.0000
  8  -3956.9645376974  -0.000000127864 0.00029047  0.00000270  0.0000441 0.0000
  9  -3956.9645376637   0.000000033692 0.00022210  0.00000205  0.0000223 0.0000
 10  -3956.9645376592   0.000000004477 0.00005241  0.00000050  0.0000313 0.0000
 11  -3956.9645376617  -0.000000002462 0.00025656  0.00000237  0.0000292 0.0000
 12  -3956.9645377391  -0.000000077424 0.00002499  0.00000025  0.0000396 0.0000
 13  -3956.9645377353   0.000000003861 0.00001964  0.00000019  0.0000386 0.0000
 14  -3956.9645377727  -0.000000037435 0.00051274  0.00000474  0.0000378 0.0000
 15  -3956.9645378922  -0.000000119552 0.00019606  0.00000183  0.0000563 0.0000
 16  -3956.9645377568   0.000000135421 0.00062892  0.00000582  0.0000789 0.0000
 17  -3956.9645375670   0.000000189847 0.00038343  0.00000354  0.0000254 0.0000
 18  -3956.9645375422   0.000000024733 0.00026927  0.00000249  0.0000099 0.0000
 19  -3956.9645375008   0.000000041396 0.00006986  0.00000065  0.0000047 0.0000
               *** Restarting incremental Fock matrix formation ***
                                   *** Resetting DIIS ***
 20  -3956.9645345536   0.000002947196 0.00018897  0.00000306  0.0000395 0.0000
 21  -3956.9645345937  -0.000000040083 0.00024809  0.00000230  0.0000160 0.0000
 22  -3956.9645347079  -0.000000114188 0.00018979  0.00000176  0.0000402 0.0000
 23  -3956.9645346600   0.000000047894 0.00026210  0.00000242  0.0000274 0.0000
 24  -3956.9645346187   0.000000041277 0.00016882  0.00000156  0.0000168 0.0000
 25  -3956.9645345508   0.000000067988 0.00013639  0.00000126  0.0000100 0.0000
 26  -3956.9645344847   0.000000066016 0.00008264  0.00000077  0.0000045 0.0000
 27  -3956.9645344698   0.000000014972 0.00002627  0.00000024  0.0000011 0.0000
                            ***DIIS convergence achieved***

               *****************************************************
               *                     SUCCESS                       *
               *           SCF CONVERGED AFTER  28 CYCLES          *
               *****************************************************

Setting up the final grid:

General Integration Accuracy     IntAcc      ...  4.670
Radial Grid Type                 RadialGrid  ... Gauss-Chebyshev
Angular Grid (max. acc.)         AngularGrid ... Lebedev-302
Angular grid pruning method      GridPruning ... 3 (G Style)
Weight generation scheme         WeightScheme... Becke
Basis function cutoff            BFCut       ...    1.0000e-11
Integration weight cutoff        WCut        ...    1.0000e-14
Grids for H and He will be reduced by one unit

# of grid points (after initial pruning)     ...  19256 (   0.0 sec)
# of grid points (after weights+screening)   ...  19227 (   0.0 sec)
nearest neighbour list constructed           ...    0.0 sec
Grid point re-assignment to atoms done       ...    0.0 sec
Grid point division into batches done        ...    0.1 sec
Reduced shell lists constructed in    0.1 sec

Total number of grid points                  ...    19227
Total number of batches                      ...      301
Average number of points per batch           ...       63
Average number of grid points per atom       ...     9614
Average number of shells per batch           ...    18.64 (42.37%)
Average number of basis functions per batch  ...    46.64 (30.69%)
Average number of large shells per batch     ...    10.71 (57.47%)
Average number of large basis fcns per batch ...    24.57 (52.68%)
Maximum spatial batch extension              ...  24.49, 24.19, 17.58 au
Average spatial batch extension              ...   0.85,  0.84,  0.67 au

Final grid set up in    0.2 sec
Final integration                            ... done (   0.2 sec)
Change in XC energy                          ...    -0.004409384
Integrated number of electrons               ...    62.000022407
Previous integrated no of electrons          ...    61.999923680
Total Energy       :        -3956.96894386 Eh         -107674.59903 eV
  Last Energy change         ...   -1.7849e-09  Tolerance :   1.0000e-08
  Last MAX-Density change    ...    2.4743e-06  Tolerance :   1.0000e-07
             **** THE GBW FILE WAS UPDATED (40_CoBr.gbw) ****
             **** DENSITY FILE WAS UPDATED (40_CoBr.scfp) ****
             **** ENERGY FILE WAS UPDATED (40_CoBr.en.tmp) ****
----------------------
UHF SPIN CONTAMINATION
----------------------

Warning: in a DFT calculation there is little theoretical justification to 
         calculate <S**2> as in Hartree-Fock theory. We will do it anyways
         but you should keep in mind that the values have only limited relevance

Expectation value of <S**2>     :     2.006523
Ideal value S*(S+1) for S=1.0   :     2.000000
Deviation                       :     0.006523

             **** THE GBW FILE WAS UPDATED (40_CoBr.gbw) ****
             **** DENSITY FILE WAS UPDATED (40_CoBr.scfp) ****
Total SCF time: 0 days 0 hours 0 min 6 sec 


-------------------------------------------------------------------------------
                          DFT DISPERSION CORRECTION                            
                                                                               
                              DFTD3 V3.1  Rev 1                                
                          USING Becke-Johnson damping                          
-------------------------------------------------------------------------------
-------------------------   ----------------
Dispersion correction           -0.001632759
-------------------------   ----------------


-------------------------   --------------------
FINAL SINGLE POINT ENERGY     -3956.970576614293
-------------------------   --------------------



           ************************************************************
           *        Program running with 24 parallel MPI-processes    *
           *              working on a common directory               *
           ************************************************************
------------------------------------------------------------------------------
                         ORCA SCF GRADIENT CALCULATION
------------------------------------------------------------------------------

Gradient of the Kohn-Sham DFT energy:
Kohn-Sham wavefunction type      ... UKS
Hartree-Fock exchange scaling    ...    0.000
Number of operators              ...    2
Number of atoms                  ...    2
Basis set dimensions             ...  152
Integral neglect threshold       ... 2.5e-11
Integral primitive cutoff        ... 2.5e-12

Nuclear repulsion gradient       ... done
One Electron Gradient            ... done
Pre-screening matrix             ... done
RI-J gradient                    ... done
Exchange-correlation gradient    ... done
Dispersion correction            ... done

------------------
CARTESIAN GRADIENT
------------------

   1   Co  :   -0.000000013   -0.000000017    0.066151861
   2   Br  :    0.000000009    0.000000021   -0.066293686

Difference to translation invariance:
           :   -0.0000000044    0.0000000038   -0.0001418245

Norm of the cartesian gradient     ...    0.0936531984
RMS gradient                       ...    0.0382337582
MAX gradient                       ...    0.0662936860

-------
TIMINGS
-------

Total SCF gradient time            ...        4.597 sec

One electron gradient       ....       0.058 sec  (  1.3%)
Prescreening matrices       ....       3.592 sec  ( 78.1%)
RI-J Coulomb gradient       ....       0.290 sec  (  6.3%)
XC gradient                 ....       0.095 sec  (  2.1%)
------------------------------------------------------------------------------
                         ORCA GEOMETRY RELAXATION STEP
------------------------------------------------------------------------------

Reading the OPT-File                    .... done
Getting information on internals        .... done
Copying old internal coords+grads       .... done
Making the new internal coordinates     .... (new redundants).... done
Validating the new internal coordinates .... (new redundants).... done
Calculating the B-matrix                .... done
Calculating the G,G- and P matrices     .... done
Transforming gradient to internals      .... done
Projecting the internal gradient        .... done
Number of atoms                         ....   2
Number of internal coordinates          ....   1
Current Energy                          .... -3956.970576614 Eh
Current gradient norm                   ....     0.093653198 Eh/bohr
Maximum allowed component of the step   ....  0.300
Current trust radius                    ....  0.300
Updating the Hessian (BFGS)             .... done
Forming the augmented Hessian           .... done
Diagonalizing the augmented Hessian     .... done
Last element of RFO vector              ....  0.975887533
Lowest eigenvalues of augmented Hessian:
 -0.014811858
Length of the computed step             ....  0.223667130
The final length of the internal step   ....  0.223667130
Converting the step to cartesian space:
 Initial RMS(Int)=    0.2236671299
Transforming coordinates:
 Iter   0:  RMS(Cart)=    0.0577350269 RMS(Int)=    0.2000000000
 Iter   1:  RMS(Cart)=    0.0068321119 RMS(Int)=    0.0236671299
 Iter   2:  RMS(Cart)=    0.0000000000 RMS(Int)=    0.0000000000
done
Storing new coordinates                 .... done

                                .--------------------.
          ----------------------|Geometry convergence|-------------------------
          Item                value                   Tolerance       Converged
          ---------------------------------------------------------------------
          Energy change      -0.0023673797            0.0000050000      NO
          RMS gradient        0.0662227737            0.0001000000      NO
          MAX gradient        0.0662227737            0.0003000000      NO
          RMS step            0.2236671299            0.0020000000      NO
          MAX step            0.2236671299            0.0040000000      NO
          ........................................................
          Max(Bonds)      0.1184      Max(Angles)    0.00
          Max(Dihed)        0.00      Max(Improp)    0.00
          ---------------------------------------------------------------------

The optimization has not yet converged - more geometry cycles are needed


    ---------------------------------------------------------------------------
                         Redundant Internal Coordinates
                            (Angstroem and degrees)

        Definition                    Value    dE/dq     Step     New-Value
    ----------------------------------------------------------------------------
     1. B(Br  1,Co  0)                2.0177 -0.066223  0.1184    2.1360   
    ----------------------------------------------------------------------------

         *************************************************************
         *                GEOMETRY OPTIMIZATION CYCLE   3            *
         *************************************************************
---------------------------------
CARTESIAN COORDINATES (ANGSTROEM)
---------------------------------
  Co     0.000000    0.000000   -0.068023
  Br     0.000000    0.000000    2.068023

----------------------------
CARTESIAN COORDINATES (A.U.)
----------------------------
  NO LB      ZA    FRAG     MASS         X           Y           Z
   0 Co   27.0000    0    58.930    0.000000    0.000000   -0.128544
   1 Br   35.0000    0    79.900    0.000000    0.000000    3.907997

--------------------------------
INTERNAL COORDINATES (ANGSTROEM)
--------------------------------
 Co     0   0   0     0.000000000000     0.00000000     0.00000000
 Br     1   0   0     2.136045530542     0.00000000     0.00000000

---------------------------
INTERNAL COORDINATES (A.U.)
---------------------------
 Co     0   0   0     0.000000000000     0.00000000     0.00000000
 Br     1   0   0     4.036541062311     0.00000000     0.00000000



           ************************************************************
           *        Program running with 24 parallel MPI-processes    *
           *              working on a common directory               *
           ************************************************************
 One Electron integrals                  ... done
 Pre-screening matrix                    ... done


           ************************************************************
           *        Program running with 24 parallel MPI-processes    *
           *              working on a common directory               *
           ************************************************************

Diagonalization of the overlap matrix:
Smallest eigenvalue                        ... 8.510e-05
Time for diagonalization                   ...    0.006 sec
Threshold for overlap eigenvalues          ... 1.000e-08
Number of eigenvalues below threshold      ... 0
Time for construction of square roots      ...    0.003 sec
Total time needed                          ...    0.009 sec

-------------------
DFT GRID GENERATION
-------------------

General Integration Accuracy     IntAcc      ...  4.340
Radial Grid Type                 RadialGrid  ... Gauss-Chebyshev
Angular Grid (max. acc.)         AngularGrid ... Lebedev-110
Angular grid pruning method      GridPruning ... 3 (G Style)
Weight generation scheme         WeightScheme... Becke
Basis function cutoff            BFCut       ...    1.0000e-11
Integration weight cutoff        WCut        ...    1.0000e-14
Grids for H and He will be reduced by one unit

# of grid points (after initial pruning)     ...   5802 (   0.0 sec)
# of grid points (after weights+screening)   ...   5776 (   0.0 sec)
nearest neighbour list constructed           ...    0.0 sec
Grid point re-assignment to atoms done       ...    0.0 sec
Grid point division into batches done        ...    0.0 sec
Reduced shell lists constructed in    0.0 sec

Total number of grid points                  ...     5776
Total number of batches                      ...       91
Average number of points per batch           ...       63
Average number of grid points per atom       ...     2888
Average number of shells per batch           ...    24.80 (56.36%)
Average number of basis functions per batch  ...    74.40 (48.95%)
Average number of large shells per batch     ...    16.80 (67.74%)
Average number of large basis fcns per batch ...    48.00 (64.52%)
Maximum spatial batch extension              ...  18.98, 28.73, 16.15 au
Average spatial batch extension              ...   0.79,  1.06,  0.71 au

Time for grid setup =    0.026 sec

--------------
SCF ITERATIONS
--------------
ITER       Energy         Delta-E        Max-DP      RMS-DP      [F,P]     Damp
               ***  Starting incremental Fock matrix formation  ***
  0  -3956.9713786994   0.000000000000 0.00834374  0.00018924  0.0753501 0.7000
  1  -3956.9719921764  -0.000613476978 0.00612781  0.00015391  0.0528311 0.7000
                               ***Turning on DIIS***
  2  -3956.9724352787  -0.000443102316 0.01557030  0.00037580  0.0369795 0.0000
  3  -3956.9734612736  -0.001025994891 0.00429011  0.00007804  0.0041464 0.0000
  4  -3956.9735009320  -0.000039658417 0.00247145  0.00004570  0.0043096 0.0000
  5  -3956.9735166411  -0.000015709133 0.00073623  0.00001538  0.0033775 0.0000
  6  -3956.9735314149  -0.000014773744 0.00198808  0.00002371  0.0005370 0.0000
  7  -3956.9735353346  -0.000003919758 0.00038207  0.00000624  0.0003232 0.0000
  8  -3956.9735356806  -0.000000345962 0.00017612  0.00000324  0.0002174 0.0000
  9  -3956.9735359709  -0.000000290360 0.00024589  0.00000325  0.0001275 0.0000
 10  -3956.9735357909   0.000000180045 0.00028472  0.00000268  0.0001003 0.0000
 11  -3956.9735360399  -0.000000248988 0.00062111  0.00000569  0.0000319 0.0000
 12  -3956.9735361690  -0.000000129085 0.00103361  0.00000944  0.0000549 0.0000
 13  -3956.9735358586   0.000000310381 0.00030188  0.00000281  0.0000161 0.0000
 14  -3956.9735358325   0.000000026056 0.00011443  0.00000112  0.0000035 0.0000
 15  -3956.9735357566   0.000000075938 0.00001725  0.00000021  0.0000073 0.0000
 16  -3956.9735357947  -0.000000038154 0.00003677  0.00000036  0.0000019 0.0000
                            ***DIIS convergence achieved***

               *****************************************************
               *                     SUCCESS                       *
               *           SCF CONVERGED AFTER  17 CYCLES          *
               *****************************************************

Setting up the final grid:

General Integration Accuracy     IntAcc      ...  4.670
Radial Grid Type                 RadialGrid  ... Gauss-Chebyshev
Angular Grid (max. acc.)         AngularGrid ... Lebedev-302
Angular grid pruning method      GridPruning ... 3 (G Style)
Weight generation scheme         WeightScheme... Becke
Basis function cutoff            BFCut       ...    1.0000e-11
Integration weight cutoff        WCut        ...    1.0000e-14
Grids for H and He will be reduced by one unit

# of grid points (after initial pruning)     ...  19256 (   0.0 sec)
# of grid points (after weights+screening)   ...  19228 (   0.0 sec)
nearest neighbour list constructed           ...    0.0 sec
Grid point re-assignment to atoms done       ...    0.0 sec
Grid point division into batches done        ...    0.1 sec
Reduced shell lists constructed in    0.1 sec

Total number of grid points                  ...    19228
Total number of batches                      ...      301
Average number of points per batch           ...       63
Average number of grid points per atom       ...     9614
Average number of shells per batch           ...    17.57 (39.94%)
Average number of basis functions per batch  ...    44.14 (29.04%)
Average number of large shells per batch     ...     9.86 (56.10%)
Average number of large basis fcns per batch ...    23.71 (53.72%)
Maximum spatial batch extension              ...  24.49, 24.19, 18.13 au
Average spatial batch extension              ...   0.84,  0.83,  0.68 au

Final grid set up in    0.2 sec
Final integration                            ... done (   0.1 sec)
Change in XC energy                          ...    -0.004492748
Integrated number of electrons               ...    62.000011833
Previous integrated no of electrons          ...    61.999793814
Total Energy       :        -3956.97802855 Eh         -107674.84624 eV
  Last Energy change         ...   -9.0376e-09  Tolerance :   1.0000e-08
  Last MAX-Density change    ...    9.3166e-06  Tolerance :   1.0000e-07
             **** THE GBW FILE WAS UPDATED (40_CoBr.gbw) ****
             **** DENSITY FILE WAS UPDATED (40_CoBr.scfp) ****
             **** ENERGY FILE WAS UPDATED (40_CoBr.en.tmp) ****
----------------------
UHF SPIN CONTAMINATION
----------------------

[...]
 131   0.0000       5.062078       137.7461 
 132   0.0000       5.063621       137.7881 
 133   0.0000       5.184756       141.0844 
 134   0.0000       5.184756       141.0844 
 135   0.0000       6.029735       164.0774 
 136   0.0000      10.309360       280.5320 
 137   0.0000      10.309500       280.5357 
 138   0.0000      10.356394       281.8118 
 139   0.0000      10.356394       281.8118 
 140   0.0000      10.376039       282.3464 
 141   0.0000      10.376039       282.3464 
 142   0.0000      10.417142       283.4648 
 143   0.0000      11.446258       311.4685 
 144   0.0000      11.446947       311.4873 
 145   0.0000      11.447429       311.5004 
 146   0.0000      11.447429       311.5004 
 147   0.0000      11.504547       313.0546 
 148   0.0000      11.504547       313.0546 
 149   0.0000      11.505993       313.0940 
 150   0.0000      11.507677       313.1398 
 151   0.0000      11.573673       314.9356 

                 SPIN DOWN ORBITALS
  NO   OCC          E(Eh)            E(eV) 
   0   1.0000    -481.713075    -13108.0792 
   1   1.0000    -276.636438     -7527.6602 
   2   1.0000     -61.925901     -1685.0894 
   3   1.0000     -55.759930     -1517.3048 
   4   1.0000     -55.757864     -1517.2486 
   5   1.0000     -55.757864     -1517.2486 
   6   1.0000     -32.377566      -881.0384 
   7   1.0000     -28.051129      -763.3100 
   8   1.0000     -28.033578      -762.8324 
   9   1.0000     -28.033578      -762.8324 
  10   1.0000      -8.452208      -229.9963 
  11   1.0000      -6.291851      -171.2100 
  12   1.0000      -6.287387      -171.0885 
  13   1.0000      -6.287387      -171.0885 
  14   1.0000      -3.516564       -95.6906 
  15   1.0000      -2.460872       -66.9637 
  16   1.0000      -2.459258       -66.9198 
  17   1.0000      -2.459258       -66.9198 
  18   1.0000      -2.455876       -66.8278 
  19   1.0000      -2.455596       -66.8202 
  20   1.0000      -2.239271       -60.9337 
  21   1.0000      -2.210784       -60.1585 
  22   1.0000      -2.210784       -60.1585 
  23   1.0000      -0.679629       -18.4936 
  24   1.0000      -0.305024        -8.3001 
  25   1.0000      -0.253461        -6.8970 
  26   1.0000      -0.253461        -6.8970 
  27   1.0000      -0.189486        -5.1562 
  28   1.0000      -0.143465        -3.9039 
  29   1.0000      -0.143319        -3.8999 
  30   0.0000      -0.118048        -3.2122 
  31   0.0000      -0.118048        -3.2122 
  32   0.0000      -0.114462        -3.1147 
  33   0.0000      -0.017668        -0.4808 
  34   0.0000      -0.017668        -0.4808 
  35   0.0000       0.006834         0.1860 
  36   0.0000       0.008869         0.2413 
  37   0.0000       0.035394         0.9631 
  38   0.0000       0.035394         0.9631 
  39   0.0000       0.053517         1.4563 
  40   0.0000       0.064851         1.7647 
  41   0.0000       0.064926         1.7667 
  42   0.0000       0.075132         2.0444 
  43   0.0000       0.076568         2.0835 
  44   0.0000       0.076568         2.0835 
  45   0.0000       0.099547         2.7088 
  46   0.0000       0.099547         2.7088 
  47   0.0000       0.110291         3.0012 
  48   0.0000       0.120587         3.2813 
  49   0.0000       0.185051         5.0355 
  50   0.0000       0.192161         5.2290 
  51   0.0000       0.192161         5.2290 
  52   0.0000       0.198893         5.4122 
  53   0.0000       0.198902         5.4124 
  54   0.0000       0.221616         6.0305 
  55   0.0000       0.269882         7.3439 
  56   0.0000       0.269882         7.3439 
  57   0.0000       0.312786         8.5113 
  58   0.0000       0.312967         8.5163 
  59   0.0000       0.321490         8.7482 
  60   0.0000       0.364545         9.9198 
  61   0.0000       0.364545         9.9198 
  62   0.0000       0.444113        12.0849 
  63   0.0000       0.444113        12.0849 
  64   0.0000       0.444806        12.1038 
  65   0.0000       0.517961        14.0944 
  66   0.0000       0.574258        15.6263 
  67   0.0000       0.614317        16.7164 
  68   0.0000       0.614489        16.7211 
  69   0.0000       0.641669        17.4607 
  70   0.0000       0.641669        17.4607 
  71   0.0000       0.644741        17.5443 
  72   0.0000       0.765760        20.8374 
  73   0.0000       0.765897        20.8411 
  74   0.0000       0.767221        20.8771 
  75   0.0000       0.767221        20.8771 
  76   0.0000       0.823202        22.4005 
  77   0.0000       0.823202        22.4005 
  78   0.0000       0.847453        23.0604 
  79   0.0000       0.935336        25.4518 
  80   0.0000       0.935336        25.4518 
  81   0.0000       1.006656        27.3925 
  82   0.0000       1.006656        27.3925 
  83   0.0000       1.042345        28.3636 
  84   0.0000       1.173952        31.9449 
  85   0.0000       1.173988        31.9458 
  86   0.0000       1.196825        32.5673 
  87   0.0000       1.250075        34.0163 
  88   0.0000       1.250075        34.0163 
  89   0.0000       1.262557        34.3559 
  90   0.0000       1.262623        34.3577 
  91   0.0000       1.322077        35.9755 
  92   0.0000       1.513142        41.1747 
  93   0.0000       1.513142        41.1747 
  94   0.0000       1.718976        46.7757 
  95   0.0000       1.859649        50.6036 
  96   0.0000       1.859649        50.6036 
  97   0.0000       1.975114        53.7456 
  98   0.0000       1.977547        53.8118 
  99   0.0000       2.009659        54.6856 
 100   0.0000       2.015072        54.8329 
 101   0.0000       2.015072        54.8329 
 102   0.0000       2.042118        55.5688 
 103   0.0000       2.048016        55.7293 
 104   0.0000       2.085319        56.7444 
 105   0.0000       2.085319        56.7444 
 106   0.0000       2.132076        58.0167 
 107   0.0000       2.132076        58.0167 
 108   0.0000       2.186604        59.5005 
 109   0.0000       2.590878        70.5014 
 110   0.0000       3.155144        85.8558 
 111   0.0000       3.155144        85.8558 
 112   0.0000       3.221522        87.6621 
 113   0.0000       3.224063        87.7312 
 114   0.0000       3.224563        87.7448 
 115   0.0000       3.297683        89.7345 
 116   0.0000       3.297683        89.7345 
 117   0.0000       3.331037        90.6421 
 118   0.0000       3.383509        92.0700 
 119   0.0000       3.383509        92.0700 
 120   0.0000       3.785899       103.0195 
 121   0.0000       3.931933       106.9933 
 122   0.0000       4.017988       109.3350 
 123   0.0000       4.021106       109.4199 
 124   0.0000       4.038044       109.8808 
 125   0.0000       4.038044       109.8808 
 126   0.0000       4.052640       110.2780 
 127   0.0000       4.055480       110.3552 
 128   0.0000       4.138220       112.6067 
 129   0.0000       4.138220       112.6067 
 130   0.0000       4.512979       122.8044 
 131   0.0000       5.105346       138.9235 
 132   0.0000       5.106179       138.9462 
 133   0.0000       5.282270       143.7379 
 134   0.0000       5.282270       143.7379 
 135   0.0000       6.080207       165.4508 
 136   0.0000      10.414054       283.3808 
 137   0.0000      10.414054       283.3808 
 138   0.0000      10.455652       284.5128 
 139   0.0000      10.455942       284.5206 
 140   0.0000      10.488579       285.4087 
 141   0.0000      10.488579       285.4087 
 142   0.0000      10.493291       285.5370 
 143   0.0000      11.542639       314.0912 
 144   0.0000      11.542639       314.0912 
 145   0.0000      11.542802       314.0956 
 146   0.0000      11.544226       314.1343 
 147   0.0000      11.554326       314.4092 
 148   0.0000      11.555894       314.4519 
 149   0.0000      11.585409       315.2550 
 150   0.0000      11.585409       315.2550 
 151   0.0000      11.648391       316.9688 

                    ********************************
                    * MULLIKEN POPULATION ANALYSIS *
                    ********************************

--------------------------------------------
MULLIKEN ATOMIC CHARGES AND SPIN POPULATIONS
--------------------------------------------
   0 Co:    0.410457    1.919252
   1 Br:   -0.410457    0.080748
Sum of atomic charges         :   -0.0000000
Sum of atomic spin populations:    2.0000000

-----------------------------------------------------
MULLIKEN REDUCED ORBITAL CHARGES AND SPIN POPULATIONS
-----------------------------------------------------
CHARGE
  0 Cos       :     6.464818  s :     6.464818
      pz      :     4.050484  p :    12.138762
      px      :     4.044139
      py      :     4.044139
      dz2     :     1.851632  d :     7.974474
      dxz     :     1.064435
      dyz     :     1.064435
      dx2y2   :     1.996982
      dxy     :     1.996990
      f0      :     0.003538  f :     0.010907
      f+1     :     0.003637
      f-1     :     0.003637
      f+2     :     0.000049
      f-2     :     0.000046
      f+3     :     0.000000
      f-3     :     0.000000
      g0      :     0.000285  g :     0.000581
      g+1     :     0.000107
      g-1     :     0.000107
      g+2     :     0.000040
      g-2     :     0.000042
      g+3     :     0.000000
      g-3     :     0.000000
      g+4     :     0.000000
      g-4     :     0.000000
  1 Brs       :     8.056590  s :     8.056590
      pz      :     5.566854  p :    17.323753
      px      :     5.878449
      py      :     5.878449
      dz2     :     2.005389  d :    10.024381
      dxz     :     2.007579
      dyz     :     2.007579
      dx2y2   :     2.001922
      dxy     :     2.001913
      f0      :     0.000410  f :     0.005734
      f+1     :     0.001654
      f-1     :     0.001654
      f+2     :     0.001007
      f-2     :     0.001008
      f+3     :     0.000000
      f-3     :     0.000000

SPIN
  0 Cos       :     0.020644  s :     0.020644
      pz      :     0.007459  p :     0.017242
      px      :     0.004892
      py      :     0.004892
      dz2     :     0.029211  d :     1.879721
      dxz     :     0.924932
      dyz     :     0.924932
      dx2y2   :     0.000325
      dxy     :     0.000322
      f0      :     0.000425  f :     0.001647
      f+1     :     0.000591
      f-1     :     0.000591
      f+2     :     0.000020
      f-2     :     0.000020
      f+3     :     0.000000
      f-3     :     0.000000
      g0      :    -0.000111  g :    -0.000001
      g+1     :     0.000022
      g-1     :     0.000022
      g+2     :     0.000031
      g-2     :     0.000034
      g+3     :     0.000000
      g-3     :     0.000000
      g+4     :     0.000000
      g-4     :     0.000000
  1 Brs       :    -0.013376  s :    -0.013376
      pz      :    -0.043153  p :     0.090576
      px      :     0.066865
      py      :     0.066865
      dz2     :    -0.001014  d :     0.002773
      dxz     :     0.002281
      dyz     :     0.002281
      dx2y2   :    -0.000387
      dxy     :    -0.000387
      f0      :    -0.000084  f :     0.000775
      f+1     :     0.000419
      f-1     :     0.000419
      f+2     :     0.000010
      f-2     :     0.000011
      f+3     :     0.000000
      f-3     :     0.000000


                     *******************************
                     * LOEWDIN POPULATION ANALYSIS *
                     *******************************

-------------------------------------------
LOEWDIN ATOMIC CHARGES AND SPIN POPULATIONS
-------------------------------------------
   0 Co:   -0.102447    1.860494
   1 Br:    0.102447    0.139506

----------------------------------------------------
LOEWDIN REDUCED ORBITAL CHARGES AND SPIN POPULATIONS
----------------------------------------------------
CHARGE
  0 Cos       :     6.435844  s :     6.435844
      pz      :     4.214640  p :    12.375405
      px      :     4.080383
      py      :     4.080383
      dz2     :     1.967006  d :     8.207240
      dxz     :     1.131289
      dyz     :     1.131289
      dx2y2   :     1.988825
      dxy     :     1.988830
      f0      :     0.035716  f :     0.082292
      f+1     :     0.023142
      f-1     :     0.023142
      f+2     :     0.000147
      f-2     :     0.000145
      f+3     :     0.000000
      f-3     :     0.000000
      g0      :     0.000841  g :     0.001666
      g+1     :     0.000373
      g-1     :     0.000373
      g+2     :     0.000039
      g-2     :     0.000041
      g+3     :     0.000000
      g-3     :     0.000000
      g+4     :     0.000000
      g-4     :     0.000000
  1 Brs       :     7.615105  s :     7.615105
      pz      :     5.580044  p :    17.022826
      px      :     5.721391
      py      :     5.721391
      dz2     :     2.099729  d :    10.158456
      dxz     :     2.023864
      dyz     :     2.023864
      dx2y2   :     2.005502
      dxy     :     2.005498
      f0      :     0.051075  f :     0.101166
      f+1     :     0.019559
      f-1     :     0.019559
      f+2     :     0.005487
      f-2     :     0.005486
      f+3     :     0.000000
      f-3     :     0.000000

SPIN
  0 Cos       :    -0.003455  s :    -0.003455
      pz      :    -0.001281  p :     0.028486
      px      :     0.014884
      py      :     0.014884
      dz2     :     0.025347  d :     1.830746
      dxz     :     0.901382
      dyz     :     0.901382
      dx2y2   :     0.001311
      dxy     :     0.001324
      f0      :    -0.000215  f :     0.004759
      f+1     :     0.002442
      f-1     :     0.002442
      f+2     :     0.000046
      f-2     :     0.000044
      f+3     :     0.000000
      f-3     :     0.000000
      g0      :    -0.000132  g :    -0.000043
      g+1     :     0.000023
      g-1     :     0.000023
      g+2     :     0.000020
      g-2     :     0.000023
      g+3     :     0.000000
      g-3     :     0.000000
      g+4     :     0.000000
      g-4     :     0.000000
  1 Brs       :    -0.001511  s :    -0.001511
      pz      :    -0.018863  p :     0.093802
      px      :     0.056333
      py      :     0.056333
      dz2     :     0.000285  d :     0.025425
      dxz     :     0.013541
      dyz     :     0.013541
      dx2y2   :    -0.000966
      dxy     :    -0.000976
      f0      :    -0.000176  f :     0.021789
      f+1     :     0.011396
      f-1     :     0.011396
      f+2     :    -0.000411
      f-2     :    -0.000416
      f+3     :     0.000000
      f-3     :     0.000000


                      *****************************
                      * MAYER POPULATION ANALYSIS *
                      *****************************

  NA   - Mulliken gross atomic population
  ZA   - Total nuclear charge
  QA   - Mulliken gross atomic charge
  VA   - Mayer's total valence
  BVA  - Mayer's bonded valence
  FA   - Mayer's free valence

  ATOM       NA         ZA         QA         VA         BVA        FA
  0 Co    26.5895    27.0000     0.4105     3.0822     1.3134     1.7689
  1 Br    35.4105    35.0000    -0.4105     1.3276     1.3134     0.0143

  Mayer bond orders larger than 0.100000
B(  0-Co,  1-Br) :   1.3134 

-------
TIMINGS
-------

Total SCF time: 0 days 0 hours 0 min 2 sec 

Total time                  ....       2.570 sec
Sum of individual times     ....       2.390 sec  ( 93.0%)

Fock matrix formation       ....       2.097 sec  ( 81.6%)
  Split-RI-J                ....       1.561 sec  ( 74.5% of F)
  XC integration            ....       0.252 sec  ( 12.0% of F)
    Basis function eval.    ....       0.032 sec  ( 12.8% of XC)
    Density eval.           ....       0.035 sec  ( 14.0% of XC)
    XC-Functional eval.     ....       0.007 sec  (  3.0% of XC)
    XC-Potential eval.      ....       0.090 sec  ( 35.8% of XC)
Diagonalization             ....       0.060 sec  (  2.3%)
Density matrix formation    ....       0.008 sec  (  0.3%)
Population analysis         ....       0.008 sec  (  0.3%)
Initial guess               ....       0.014 sec  (  0.5%)
Orbital Transformation      ....       0.000 sec  (  0.0%)
Orbital Orthonormalization  ....       0.008 sec  (  0.3%)
DIIS solution               ....       0.020 sec  (  0.8%)
Grid generation             ....       0.183 sec  (  7.1%)


-------------------------------------------------------------------------------
                          DFT DISPERSION CORRECTION                            
                                                                               
                              DFTD3 V3.1  Rev 1                                
                          USING Becke-Johnson damping                          
-------------------------------------------------------------------------------
The TPSS functional is recognized
Active option DFTDOPT                   ...         4   

molecular C6(AA) [au] = 767.637364 


            DFT-D V3
 parameters
 s6 scaling factor         :     1.0000 
 a1 scaling factor         :     0.4535 
 s8 scaling factor         :     1.9435 
 a2 scaling factor         :     4.4752 
 ad hoc parameters k1-k3   :    16.0000     1.3333    -4.0000 

 Edisp/kcal,au: -1.027861613662  -0.001638001570 
 E6   /kcal   :  -0.333578525 
 E8   /kcal   :  -0.694283089 
 % E8         :  67.546358362 

-------------------------   ----------------
Dispersion correction           -0.001638002
-------------------------   ----------------


-------------------------   --------------------
FINAL SINGLE POINT ENERGY     -3956.980864154376
-------------------------   --------------------

                                *** OPTIMIZATION RUN DONE ***

                            ***************************************
                            *     ORCA property calculations      *
                            ***************************************

                                    ---------------------
                                    Active property flags
                                    ---------------------
   (+) Dipole Moment


------------------------------------------------------------------------------
                       ORCA ELECTRIC PROPERTIES CALCULATION
------------------------------------------------------------------------------

Dipole Moment Calculation                       ... on
Quadrupole Moment Calculation                   ... off
Polarizability Calculation                      ... off
GBWName                                         ... 40_CoBr.gbw
Electron density file                           ... 40_CoBr.scfp
The origin for moment calculation is the CENTER OF MASS  = ( 0.000000,  0.000000  2.204645)

-------------
DIPOLE MOMENT
-------------
                                X             Y             Z
Electronic contribution:      0.00000       0.00000       1.10097
Nuclear contribution   :      0.00000       0.00000      -2.84584
                        -----------------------------------------
Total Dipole Moment    :      0.00000       0.00000      -1.74486
                        -----------------------------------------
Magnitude (a.u.)       :      1.74486
Magnitude (Debye)      :      4.43509



--------------------
Rotational spectrum 
--------------------
 
Rotational constants in cm-1:     0.000000     0.102086     0.102086 
Rotational constants in MHz :     0.000000  3060.463500  3060.463500 

 Dipole components along the rotational axes: 
x,y,z [a.u.] :    -1.744863     0.000000     0.000000 
x,y,z [Debye]:    -4.435090     0.000001     0.000001 

 

Timings for individual modules:

Sum of individual times         ...       93.173 sec (=   1.553 min)
GTO integral calculation        ...       30.197 sec (=   0.503 min)  32.4 %
SCF iterations                  ...       32.851 sec (=   0.548 min)  35.3 %
SCF Gradient evaluation         ...       29.925 sec (=   0.499 min)  32.1 %
Geometry relaxation             ...        0.199 sec (=   0.003 min)   0.2 %
                             ****ORCA TERMINATED NORMALLY****
TOTAL RUN TIME: 0 days 0 hours 1 minutes 34 seconds 145 msec
