
                                 *****************
                                 * O   R   C   A *
                                 *****************

           --- An Ab Initio, DFT and Semiempirical electronic structure package ---

                  #######################################################
                  #                        -***-                        #
                  #          Department of theory and spectroscopy      #
                  #               Directorship: Frank Neese             #
                  #        Max Planck Institute fuer Kohlenforschung    #
                  #                Kaiser Wilhelm Platz 1               #
                  #                 D-45470 Muelheim/Ruhr               #
                  #                      Germany                        #
                  #                                                     #
                  #                  All rights reserved                #
                  #                        -***-                        #
                  #######################################################


                         Program Version 4.2.0 -  RELEASE  -


 With contributions from (in alphabetic order):
   Daniel Aravena         : Magnetic Suceptibility
   Michael Atanasov       : Ab Initio Ligand Field Theory (pilot matlab implementation)
   Alexander A. Auer      : GIAO ZORA, VPT2
   Ute Becker             : Parallelization
   Giovanni Bistoni       : ED, misc. LED, open-shell LED, HFLED
   Martin Brehm           : Molecular dynamics
   Dmytro Bykov           : SCF Hessian
   Vijay G. Chilkuri      : MRCI spin determinant printing, contributions to CSF-ICE
   Dipayan Datta          : RHF DLPNO-CCSD density
   Achintya Kumar Dutta   : EOM-CC, STEOM-CC
   Dmitry Ganyushin       : Spin-Orbit,Spin-Spin,Magnetic field MRCI
   Miquel Garcia          : C-PCM Hessian, Gaussian charge scheme
   Yang Guo               : DLPNO-NEVPT2, CIM, IAO-localization
   Andreas Hansen         : Spin unrestricted coupled pair/coupled cluster methods
   Benjamin Helmich-Paris : CASSCF linear response (MC-RPA)
   Lee Huntington         : MR-EOM, pCC
   Robert Izsak           : Overlap fitted RIJCOSX, COSX-SCS-MP3, EOM
   Christian Kollmar      : KDIIS, OOCD, Brueckner-CCSD(T), CCSD density
   Simone Kossmann        : Meta GGA functionals, TD-DFT gradient, OOMP2, MP2 Hessian
   Martin Krupicka        : AUTO-CI
   Lucas Lang             : DCDCAS
   Dagmar Lenk            : GEPOL surface, SMD
   Dimitrios Liakos       : Extrapolation schemes; Compound Job, initial MDCI parallelization
   Dimitrios Manganas     : Further ROCIS development; embedding schemes
   Dimitrios Pantazis     : SARC Basis sets
   Taras Petrenko         : DFT Hessian,TD-DFT gradient, ASA, ECA, R-Raman, ABS, FL, XAS/XES, NRVS
   Peter Pinski           : DLPNO-MP2, DLPNO-MP2 Gradient
   Christoph Reimann      : Effective Core Potentials
   Marius Retegan         : Local ZFS, SOC
   Christoph Riplinger    : Optimizer, TS searches, QM/MM, DLPNO-CCSD(T), (RO)-DLPNO pert. Triples
   Tobias Risthaus        : Range-separated hybrids, TD-DFT gradient, RPA, STAB
   Michael Roemelt        : Original ROCIS implementation
   Masaaki Saitow         : Open-shell DLPNO-CCSD energy and density
   Barbara Sandhoefer     : DKH picture change effects
   Avijit Sen             : IP-ROCIS
   Kantharuban Sivalingam : CASSCF convergence, NEVPT2, FIC-MRCI
   Bernardo de Souza      : ESD, SOC TD-DFT
   Georgi Stoychev        : AutoAux, RI-MP2 NMR
   Willem Van den Heuvel  : Paramagnetic NMR
   Boris Wezisla          : Elementary symmetry handling
   Frank Wennmohs         : Technical directorship


 We gratefully acknowledge several colleagues who have allowed us to
 interface, adapt or use parts of their codes:
   Stefan Grimme, W. Hujo, H. Kruse,             : VdW corrections, initial TS optimization,
                  C. Bannwarth                     DFT functionals, gCP, sTDA/sTD-DF
   Ed Valeev, F. Pavosevic, A. Kumar             : LibInt (2-el integral package), F12 methods
   Garnet Chan, S. Sharma, J. Yang, R. Olivares  : DMRG
   Ulf Ekstrom                                   : XCFun DFT Library
   Mihaly Kallay                                 : mrcc  (arbitrary order and MRCC methods)
   Andreas Klamt, Michael Diedenhofen            : otool_cosmo (COSMO solvation model)
   Jiri Pittner, Ondrej Demel                    : Mk-CCSD
   Frank Weinhold                                : gennbo (NPA and NBO analysis)
   Christopher J. Cramer and Donald G. Truhlar   : smd solvation model
   Lars Goerigk                                  : TD-DFT with DH, B97 family of functionals
   V. Asgeirsson, H. Jonsson                     : NEB implementation
   FAccTs GmbH                                   : IRC, NEB, NEB-TS, Multilevel, MM, QM/MM, CI optimization
   S Lehtola, MJT Oliveira, MAL Marques          : LibXC Library


 Your calculation uses the libint2 library for the computation of 2-el integrals
 For citations please refer to: http://libint.valeyev.net

 Your ORCA version has been built with support for libXC version: 4.2.3
 For citations please refer to: https://tddft.org/programs/libxc/

 This ORCA versions uses:
   CBLAS   interface :  Fast vector & matrix operations
   LAPACKE interface :  Fast linear algebra routines
   SCALAPACK package :  Parallel linear algebra routines


Your calculation utilizes the atom-pairwise dispersion correction
with the Becke-Johnson damping scheme (D3BJ)
Cite in your paper:
S.Grimme, S.Ehrlich, L.Goerigk, J Comput Chem, (2011), 32, 1456–1465 
S.Grimme, J.Antony, S.Ehrlich and H.Krieg, J.Chem.Phys., 132, (2010), 154104 
   

----- Orbital basis set information -----
Your calculation utilizes the basis: aug-cc-pVTZ 
    H, B-Ne : Obtained from the ccRepo (grant-hill.group.shef.ac.uk/ccrepo) Feb. 2017
              R. A. Kendall, T. H. Dunning, Jr., R. J. Harrison, J. Chem. Phys. 96, 6796 (1992)
         He : Obtained from the ccRepo (grant-hill.group.shef.ac.uk/ccrepo) Feb. 2017
              D. E. Woon, T. H. Dunning, Jr., J. Chem. Phys. 100, 2975 (1994)
  Li-Be, Na : Obtained from the ccRepo (grant-hill.group.shef.ac.uk/ccrepo) Feb. 2017
              B. P. Prascher, D. E. Woon, K. A. Peterson, T. H. Dunning, Jr., A. K. Wilson, Theor. Chem. Acc. 128, 69 (2011)
         Mg : Obtained from the Peterson Research Group Website (tyr0.chem.wsu.edu/~kipeters) Feb. 2017
              B. P. Prascher, D. E. Woon, K. A. Peterson, T. H. Dunning, Jr., A. K. Wilson, Theor. Chem. Acc. 128, 69 (2011)
      Al-Ar : Obtained from the ccRepo (grant-hill.group.shef.ac.uk/ccrepo) Feb. 2017
              D. E. Woon, T. H. Dunning, Jr., J. Chem. Phys. 98, 1358 (1993)
      Sc-Zn : Obtained from the ccRepo (grant-hill.group.shef.ac.uk/ccrepo) Feb. 2017
              N. B. Balabanov, K. A. Peterson, J. Chem. Phys. 123, 064107 (2005)
              N. B. Balabanov, K. A. Peterson, J. Chem. Phys. 125, 074110 (2006)
      Ga-Kr : Obtained from the ccRepo (grant-hill.group.shef.ac.uk/ccrepo) Feb. 2017
              A. K. Wilson, D. E. Woon, K. A. Peterson, T. H. Dunning, Jr., J. Chem. Phys. 110, 7667 (1999)
     Ag, Au : Obtained from the Peterson Research Group Website (tyr0.chem.wsu.edu/~kipeters) Feb. 2017
              K. A. Peterson, C. Puzzarini, Theor. Chem. Acc. 114, 283 (2005)

----- AuxJ basis set information -----
Your calculation utilizes the auxiliary basis: def2/J
   F. Weigend, Phys. Chem. Chem. Phys. 8, 1057 (2006).

================================================================================
                                        WARNINGS
                       Please study these warnings very carefully!
================================================================================


WARNING: your system is open-shell and RHF/RKS was chosen
  ===> : WILL SWITCH to UHF/UKS


WARNING: Geometry Optimization
  ===> : Switching off AutoStart
         For restart on a previous wavefunction, please use MOREAD

INFO   : the flag for use of LIBINT has been found!

================================================================================
                                       INPUT FILE
================================================================================
NAME = 41_CoO.in
|  1> #
|  2> # 41_CoO tpss/aug-cc-pvtz
|  3> #
|  4> ! tpss d3bj aug-cc-pvtz def2/j opt xyzfile
|  5> 
|  6> *xyz 0 4
|  7> Co 0.0 0.0 0.0
|  8> O 0.0 0.0 2.0
|  9> *
| 10> 
| 11> %pal
| 12> nprocs 24
| 13> end
| 14> 
| 15> 
| 16>                          ****END OF INPUT****
================================================================================

                       *****************************
                       * Geometry Optimization Run *
                       *****************************

Geometry optimization settings:
Update method            Update   .... BFGS
Choice of coordinates    CoordSys .... Z-matrix Internals
Initial Hessian          InHess   .... Almoef's Model

Convergence Tolerances:
Energy Change            TolE     ....  5.0000e-06 Eh
Max. Gradient            TolMAXG  ....  3.0000e-04 Eh/bohr
RMS Gradient             TolRMSG  ....  1.0000e-04 Eh/bohr
Max. Displacement        TolMAXD  ....  4.0000e-03 bohr
RMS Displacement         TolRMSD  ....  2.0000e-03 bohr
Strict Convergence                ....  False
------------------------------------------------------------------------------
                        ORCA OPTIMIZATION COORDINATE SETUP
------------------------------------------------------------------------------

The optimization will be done in new redundant internal coordinates
Making redundant internal coordinates   ...  (new redundants) done
Evaluating the initial hessian          ...  (Almloef) done
Evaluating the coordinates              ...  done
Calculating the B-matrix                .... done
Calculating the G-matrix                .... done
Diagonalizing the G-matrix              .... done
The first mode is                       ....    0
The number of degrees of freedom        ....    1

    -----------------------------------------------------------------
                    Redundant Internal Coordinates


    -----------------------------------------------------------------
         Definition                    Initial Value    Approx d2E/dq
    -----------------------------------------------------------------
      1. B(O   1,Co  0)                  2.0000         0.602260   
    -----------------------------------------------------------------

Number of atoms                         .... 2
Number of degrees of freedom            .... 1

         *************************************************************
         *                GEOMETRY OPTIMIZATION CYCLE   1            *
         *************************************************************
---------------------------------
CARTESIAN COORDINATES (ANGSTROEM)
---------------------------------
  Co     0.000000    0.000000    0.000000
  O      0.000000    0.000000    2.000000

----------------------------
CARTESIAN COORDINATES (A.U.)
----------------------------
  NO LB      ZA    FRAG     MASS         X           Y           Z
   0 Co   27.0000    0    58.930    0.000000    0.000000    0.000000
   1 O     8.0000    0    15.999    0.000000    0.000000    3.779452

--------------------------------
INTERNAL COORDINATES (ANGSTROEM)
--------------------------------
 Co     0   0   0     0.000000000000     0.00000000     0.00000000
 O      1   0   0     2.000000000000     0.00000000     0.00000000

---------------------------
INTERNAL COORDINATES (A.U.)
---------------------------
 Co     0   0   0     0.000000000000     0.00000000     0.00000000
 O      1   0   0     3.779452267843     0.00000000     0.00000000

---------------------
BASIS SET INFORMATION
---------------------
There are 2 groups of distinct atoms

 Group   1 Type Co  : 116s77p23d3f2g contracted to 8s7p5d3f2g pattern {19191919191911/151515151511/77711/111/11}
 Group   2 Type O   : 19s6p3d2f contracted to 5s4p3d2f pattern {88111/3111/111/11}

Atom   0Co   basis set group =>   1
Atom   1O    basis set group =>   2
---------------------------------
AUXILIARY/J BASIS SET INFORMATION
---------------------------------
There are 2 groups of distinct atoms

 Group   1 Type Co  : 19s5p5d3f3g contracted to 8s5p5d2f3g pattern {121111111/11111/11111/21/111}
 Group   2 Type O   : 12s5p4d2f1g contracted to 6s4p3d1f1g pattern {711111/2111/211/2/1}

Atom   0Co   basis set group =>   1
Atom   1O    basis set group =>   2


           ************************************************************
           *        Program running with 24 parallel MPI-processes    *
           *              working on a common directory               *
           ************************************************************
------------------------------------------------------------------------------
                           ORCA GTO INTEGRAL CALCULATION
                           -- RI-GTO INTEGRALS CHOSEN --
------------------------------------------------------------------------------

                         BASIS SET STATISTICS AND STARTUP INFO

Gaussian basis set:
 # of primitive gaussian shells          ...  251
 # of primitive gaussian functions       ...  567
 # of contracted shells                  ...   39
 # of contracted basis functions         ...  139
 Highest angular momentum                ...    4
 Maximum contraction depth               ...   19
Auxiliary gaussian basis set:
 # of primitive gaussian shells          ...   59
 # of primitive gaussian functions       ...  177
 # of contracted shells                  ...   38
 # of contracted aux-basis functions     ...  138
 Highest angular momentum                ...    4
 Maximum contraction depth               ...   12
Ratio of auxiliary to basis functions    ...  0.99
Integral package used                  ... LIBINT
 One Electron integrals                  ... done
 Ordering auxiliary basis shells         ... done
 Integral threshhold             Thresh  ...  2.500e-11
 Primitive cut-off               TCut    ...  2.500e-12
 Pre-screening matrix                    ... done
 Shell pair data                         ... 
 Ordering of the shell pairs             ... done (   0.000 sec) 780 of 780 pairs
 Determination of significant pairs      ... done (   0.000 sec)
 Creation of shell pair data             ... done (   0.001 sec)
 Storage of shell pair data              ... done (   0.017 sec)
 Shell pair data done in (   0.018 sec)
 Computing two index integrals           ... done
 Cholesky decomposition of the V-matrix  ... done


Timings:
 Total evaluation time                   ...   2.207 sec (  0.037 min)
 One electron matrix time                ...   0.045 sec (  0.001 min) =  2.0%
 Schwartz matrix evaluation time         ...   2.107 sec (  0.035 min) = 95.5%
 Two index repulsion integral time       ...   0.001 sec (  0.000 min) =  0.0%
 Cholesky decomposition of V             ...   0.001 sec (  0.000 min) =  0.0%
 Three index repulsion integral time     ...   0.000 sec (  0.000 min) =  0.0%



           ************************************************************
           *        Program running with 24 parallel MPI-processes    *
           *              working on a common directory               *
           ************************************************************
-------------------------------------------------------------------------------
                                 ORCA SCF
-------------------------------------------------------------------------------

------------
SCF SETTINGS
------------
Hamiltonian:
 Density Functional     Method          .... DFT(GTOs)
 Exchange Functional    Exchange        .... TPSS
 Correlation Functional Correlation     .... TPSS
 LDA part of GGA corr.  LDAOpt          .... PW91-LDA
 Gradients option       PostSCFGGA      .... off
   Density functional embedding theory  .... OFF
   NL short-range parameter             ....  5.000000
 RI-approximation to the Coulomb term is turned on
   Number of auxiliary basis functions  .... 138


General Settings:
 Integral files         IntName         .... 41_CoO
 Hartree-Fock type      HFTyp           .... UHF
 Total Charge           Charge          ....    0
 Multiplicity           Mult            ....    4
 Number of Electrons    NEL             ....   35
 Basis Dimension        Dim             ....  139
 Nuclear Repulsion      ENuc            ....     57.1511384964 Eh

Convergence Acceleration:
 DIIS                   CNVDIIS         .... on
   Start iteration      DIISMaxIt       ....    12
   Startup error        DIISStart       ....  0.200000
   # of expansion vecs  DIISMaxEq       ....     5
   Bias factor          DIISBfac        ....   1.050
   Max. coefficient     DIISMaxC        ....  10.000
 Newton-Raphson         CNVNR           .... off
 SOSCF                  CNVSOSCF        .... off
 Level Shifting         CNVShift        .... on
   Level shift para.    LevelShift      ....    0.2500
   Turn off err/grad.   ShiftErr        ....    0.0010
 Zerner damping         CNVZerner       .... off
 Static damping         CNVDamp         .... on
   Fraction old density DampFac         ....    0.7000
   Max. Damping (<1)    DampMax         ....    0.9800
   Min. Damping (>=0)   DampMin         ....    0.0000
   Turn off err/grad.   DampErr         ....    0.1000
 Fernandez-Rico         CNVRico         .... off

SCF Procedure:
 Maximum # iterations   MaxIter         ....   125
 SCF integral mode      SCFMode         .... Direct
   Integral package                     .... LIBINT
 Reset frequency        DirectResetFreq ....    20
 Integral Threshold     Thresh          ....  2.500e-11 Eh
 Primitive CutOff       TCut            ....  2.500e-12 Eh

Convergence Tolerance:
 Convergence Check Mode ConvCheckMode   .... Total+1el-Energy
 Convergence forced     ConvForced      .... 0
 Energy Change          TolE            ....  1.000e-08 Eh
 1-El. energy change                    ....  1.000e-05 Eh
 DIIS Error             TolErr          ....  5.000e-07


Diagonalization of the overlap matrix:
Smallest eigenvalue                        ... 1.672e-04
Time for diagonalization                   ...    0.006 sec
Threshold for overlap eigenvalues          ... 1.000e-08
Number of eigenvalues below threshold      ... 0
Time for construction of square roots      ...    0.002 sec
Total time needed                          ...    0.008 sec

-------------------
DFT GRID GENERATION
-------------------

General Integration Accuracy     IntAcc      ...  4.340
Radial Grid Type                 RadialGrid  ... Gauss-Chebyshev
Angular Grid (max. acc.)         AngularGrid ... Lebedev-110
Angular grid pruning method      GridPruning ... 3 (G Style)
Weight generation scheme         WeightScheme... Becke
Basis function cutoff            BFCut       ...    1.0000e-11
Integration weight cutoff        WCut        ...    1.0000e-14
Grids for H and He will be reduced by one unit

# of grid points (after initial pruning)     ...   4628 (   0.0 sec)
# of grid points (after weights+screening)   ...   4605 (   0.0 sec)
nearest neighbour list constructed           ...    0.0 sec
Grid point re-assignment to atoms done       ...    0.0 sec
Grid point division into batches done        ...    0.0 sec
Reduced shell lists constructed in    0.0 sec

Total number of grid points                  ...     4605
Total number of batches                      ...       73
Average number of points per batch           ...       63
Average number of grid points per atom       ...     2302
Average number of shells per batch           ...    20.80 (53.33%)
Average number of basis functions per batch  ...    59.20 (42.59%)
Average number of large shells per batch     ...    15.20 (73.08%)
Average number of large basis fcns per batch ...    41.60 (70.27%)
Maximum spatial batch extension              ...  19.25, 28.73, 16.15 au
Average spatial batch extension              ...   1.01,  1.32,  0.89 au

Time for grid setup =    0.024 sec

------------------------------
INITIAL GUESS: MODEL POTENTIAL
------------------------------
Loading Hartree-Fock densities                     ... done
Calculating cut-offs                               ... done
Setting up the integral package                    ... done
Initializing the effective Hamiltonian             ... done
Starting the Coulomb interaction                   ... done (   0.0 sec)
Reading the grid                                   ... done
Mapping shells                                     ... done
Starting the XC term evaluation                    ... done (   0.0 sec)
  promolecular density results
     # of electrons  =     35.000381825
     EX              =    -65.772042140
     EC              =     -1.460909780
     EX+EC           =    -67.232951921
Transforming the Hamiltonian                       ... done (   0.0 sec)
Diagonalizing the Hamiltonian                      ... done (   0.0 sec)
Back transforming the eigenvectors                 ... done (   0.0 sec)
Now organizing SCF variables                       ... done
                      ------------------
                      INITIAL GUESS DONE (   0.1 sec)
                      ------------------
--------------
SCF ITERATIONS
--------------
ITER       Energy         Delta-E        Max-DP      RMS-DP      [F,P]     Damp
               ***  Starting incremental Fock matrix formation  ***
  0  -1457.6155774376   0.000000000000 0.25414814  0.00292927  0.4837184 0.7000
  1  -1457.6175879220  -0.002010484347 0.29148429  0.00310680  0.3871381 0.7000
  2  -1457.6062049462   0.011382975812 0.15441487  0.00195641  0.2478481 0.7000
  3  -1457.6565160263  -0.050311080146 0.07688134  0.00135603  0.2183533 0.7000
                               ***Turning on DIIS***
  4  -1457.7901627857  -0.133646759386 0.15234884  0.00240088  0.0735744 0.0000
  5  -1457.8879344335  -0.097771647798 0.00524944  0.00010339  0.2305134 0.7000
  6  -1457.8923871084  -0.004452674900 0.00679452  0.00011689  0.2222474 0.7000
  7  -1457.8962945600  -0.003907451561 0.00677336  0.00010673  0.2132960 0.7000
  8  -1457.8990855792  -0.002791019231 0.00607726  0.00009073  0.2055015 0.7000
  9  -1457.9010442683  -0.001958689076 0.15886881  0.00163948  0.1991270 0.7000
 10  -1457.9315088524  -0.030464584106 0.09679444  0.00094860  0.1703966 0.7000
 11  -1457.8163021773   0.115206675046 0.05413183  0.00051346  0.2922049 0.7000
 12  -1457.7405266806   0.075775496761 0.02591213  0.00026270  0.3803790 0.7000
 13  -1457.7191026739   0.021424006708 0.01434259  0.00015573  0.4134778 0.7000
 14  -1457.7351473439  -0.016044670020 0.02760893  0.00031604  0.4094616 0.7000
 15  -1457.7931305308  -0.057983186975 0.09027613  0.00093302  0.3522848 0.7000
 16  -1457.9275453557  -0.134414824869 0.08201483  0.00100710  0.1194493 0.7000
 17  -1457.9566496566  -0.029104300850 0.05306057  0.00054943  0.1312655 0.7000
 18  -1457.9428499592   0.013799697392 0.03178237  0.00034298  0.1472470 0.7000
 19  -1457.9306458615   0.012204097719 0.01409282  0.00021493  0.1547095 0.7000
               *** Restarting incremental Fock matrix formation ***
                                   *** Resetting DIIS ***
 20  -1457.9311567018  -0.000510840345 0.13967942  0.00138886  0.1565774 0.7000
 21  -1457.9248937234   0.006262978356 0.08665431  0.00082729  0.1908260 0.7000
 22  -1457.8281947989   0.096698924568 0.04737670  0.00042942  0.2850350 0.7000
 23  -1457.7743781870   0.053816611898 0.02078547  0.00020232  0.3549933 0.7000
 24  -1457.7685601853   0.005818001681 0.01563056  0.00013263  0.3725380 0.7000
 25  -1457.7920369493  -0.023476764013 0.02615610  0.00040894  0.3575784 0.7000
 26  -1457.8480545709  -0.056017621549 0.09998405  0.00100351  0.2948693 0.7000
 27  -1457.9650630147  -0.117008443841 0.24494196  0.00237424  0.0573190 0.0000
 28  -1457.7673386481   0.197724366552 0.00632427  0.00010157  0.3158124 0.7000
 29  -1457.7872767502  -0.019938102101 0.00839776  0.00013014  0.2978610 0.7000
 30  -1457.8118248096  -0.024548059399 0.00889151  0.00013417  0.2768509 0.7000
 31  -1457.8353163642  -0.023491554594 0.00937447  0.00012355  0.2586652 0.7000
 32  -1457.8539186582  -0.018602293968 0.10792118  0.00106755  0.2438782 0.7000
 33  -1457.9761815574  -0.122262899228 0.25684762  0.00224439  0.0533516 0.0000
 34  -1457.7874548305   0.188726726896 0.00567414  0.00009587  0.3640100 0.7000
 35  -1457.8068215144  -0.019366683823 0.00840307  0.00012320  0.3466079 0.7000
 36  -1457.8306832884  -0.023861774080 0.01072466  0.00012906  0.3231410 0.7000
 37  -1457.8533951110  -0.022711822593 0.01221213  0.00012880  0.2987665 0.7000
 38  -1457.8729063646  -0.019511253518 0.07506132  0.00076128  0.2760455 0.7000
 39  -1457.9737081319  -0.100801767364 0.19529691  0.00207842  0.0935401 0.0000
               *** Restarting incremental Fock matrix formation ***
                                   *** Resetting DIIS ***
 40  -1457.8831803866   0.090527745280 0.19548304  0.00193291  0.2416175 0.7000
 41  -1457.8694039269   0.013776459739 0.11360820  0.00117753  0.2644635 0.7000
 42  -1457.6675865787   0.201817348161 0.06010446  0.00059044  0.3671603 0.7000
 43  -1457.5726159547   0.094970623992 0.02585017  0.00029634  0.4582947 0.7000
 44  -1457.5879593177  -0.015343362938 0.02598279  0.00027421  0.4752953 0.7000
 45  -1457.6611072865  -0.073147968828 0.04846555  0.00067165  0.4391409 0.7000
 46  -1457.7860937465  -0.124986459998 0.12236407  0.00120496  0.3291359 0.7000
 47  -1457.9521570178  -0.166063271289 0.30211334  0.00279523  0.0703251 0.0000
 48  -1457.7113286841   0.240828333684 0.01353274  0.00013477  0.3696639 0.7000
 49  -1457.7324599818  -0.021131297653 0.02154157  0.00019071  0.3526273 0.7000
 50  -1457.7584962224  -0.026036240586 0.02604686  0.00021794  0.3338611 0.7000
 51  -1457.7842910678  -0.025794845489 0.02784577  0.00022382  0.3189175 0.7000
 52  -1457.8084042799  -0.024113212008 0.15067151  0.00148434  0.3041212 0.7000
 53  -1457.9777141992  -0.169309919369 0.34238073  0.00289659  0.0183397 0.0000
 54  -1457.5476292696   0.430084929641 0.01205582  0.00016808  0.4839185 0.7000
 55  -1457.6069503299  -0.059321060291 0.01843228  0.00022140  0.4518149 0.7000
 56  -1457.6791454902  -0.072195160318 0.02108854  0.00023123  0.4094082 0.7000
 57  -1457.7459363067  -0.066790816500 0.02166105  0.00022479  0.3660989 0.7000
 58  -1457.8021989206  -0.056262613903 0.07369556  0.00073720  0.3254934 0.7000
 59  -1457.9468418362  -0.144642915591 0.06459800  0.00066867  0.1744095 0.7000
               *** Restarting incremental Fock matrix formation ***
                                   *** Resetting DIIS ***
 60  -1457.9982201169  -0.051378280725 0.26402482  0.00217991  0.0579843 0.0000
 61  -1457.7716036240   0.226616492912 0.01024929  0.00014459  0.3377909 0.7000
 62  -1457.8056298679  -0.034026243880 0.01479430  0.00016747  0.3088547 0.7000
 63  -1457.8425216301  -0.036891762180 0.01595841  0.00016806  0.2767245 0.7000
 64  -1457.8749286093  -0.032406979258 0.01536837  0.00015996  0.2471312 0.7000
 65  -1457.9017351870  -0.026806577722 0.07577770  0.00066087  0.2210293 0.7000
 66  -1457.9856830311  -0.083947844107 0.06348159  0.00047587  0.1023812 0.7000
 67  -1458.0108142462  -0.025131215104 0.15067166  0.00104019  0.0309275 0.0000
 68  -1457.9904107219   0.020403524307 0.00271472  0.00003680  0.1268451 0.7000
 69  -1457.9933175005  -0.002906778586 0.00410091  0.00004955  0.1203737 0.7000
 70  -1457.9969153743  -0.003597873796 0.00463691  0.00005195  0.1118680 0.7000
 71  -1458.0003112574  -0.003395883119 0.00467729  0.00004991  0.1034284 0.7000
 72  -1458.0032263947  -0.002915137257 0.08984926  0.00085480  0.0956879 0.0000
 73  -1458.0060881859  -0.002861791244 0.00597422  0.00011695  0.1129202 0.7000
 74  -1458.0086960270  -0.002607841046 0.01211142  0.00023936  0.0902154 0.0000
 75  -1458.0157340691  -0.007038042084 0.01095875  0.00016321  0.0565506 0.0000
 76  -1458.0189093094  -0.003175240284 0.01725193  0.00013084  0.0338125 0.0000
 77  -1458.0213086274  -0.002399318077 0.01213604  0.00008476  0.0152359 0.0000
 78  -1458.0217850576  -0.000476430142 0.00790164  0.00005314  0.0043102 0.0000
 79  -1458.0218355435  -0.000050485966 0.00515111  0.00003242  0.0029553 0.0000
               *** Restarting incremental Fock matrix formation ***
                                   *** Resetting DIIS ***
 80  -1458.0218392714  -0.000003727881 0.00583863  0.00006299  0.0030872 0.0000
 81  -1458.0216396141   0.000199657329 0.00364738  0.00003428  0.0122462 0.0000
 82  -1458.0218005844  -0.000160970288 0.00357541  0.00002199  0.0058383 0.0000
 83  -1458.0218581373  -0.000057552872 0.00341238  0.00001999  0.0032422 0.0000
 84  -1458.0218815040  -0.000023366707 0.00293511  0.00001693  0.0012775 0.0000
 85  -1458.0218876481  -0.000006144105 0.01121112  0.00006518  0.0007023 0.0000
 86  -1458.0218740676   0.000013580454 0.00009909  0.00000142  0.0035215 0.0000
 87  -1458.0218710945   0.000002973133 0.00009543  0.00000090  0.0037224 0.0000
 88  -1458.0218685869   0.000002507543 0.00007585  0.00000067  0.0038730 0.0000
 89  -1458.0218667758   0.000001811106 0.00005542  0.00000098  0.0039811 0.0000
 90  -1458.0218670869  -0.000000311106 0.00584969  0.00005517  0.0040205 0.0000
 91  -1458.0217912345   0.000075852423 0.00147293  0.00002922  0.0098473 0.0000
 92  -1458.0218463776  -0.000055143086 0.00105359  0.00001165  0.0054238 0.0000
 93  -1458.0218746248  -0.000028247239 0.00142740  0.00001014  0.0036805 0.0000
 94  -1458.0218947362  -0.000020111399 0.00147780  0.00000924  0.0020266 0.0000
 95  -1458.0219040021  -0.000009265856 0.00660964  0.00004063  0.0009485 0.0000
 96  -1458.0218947846   0.000009217455 0.00006065  0.00000080  0.0026152 0.0000
 97  -1458.0218961369  -0.000001352313 0.00008922  0.00000098  0.0023840 0.0000
 98  -1458.0218977272  -0.000001590223 0.00009651  0.00000095  0.0022591 0.0000
 99  -1458.0218991788  -0.000001451608 0.00008659  0.00000080  0.0021239 0.0000
               *** Restarting incremental Fock matrix formation ***
                                   *** Resetting DIIS ***
100  -1458.0219000687  -0.000000889899 0.00537188  0.00004625  0.0020037 0.0000
101  -1458.0217958790   0.000104189688 0.00085916  0.00001880  0.0088062 0.0000
102  -1458.0218598948  -0.000064015833 0.00080679  0.00000771  0.0049438 0.0000
103  -1458.0218840717  -0.000024176848 0.00077060  0.00000572  0.0035409 0.0000
104  -1458.0218966745  -0.000012602821 0.00068856  0.00000465  0.0025823 0.0000
105  -1458.0219038289  -0.000007154363 0.00142503  0.00000984  0.0018757 0.0000
106  -1458.0219120033  -0.000008174452 0.00410119  0.00002648  0.0004537 0.0000
107  -1458.0219046675   0.000007335818 0.00007222  0.00000139  0.0025724 0.0000
108  -1458.0219058975  -0.000001229983 0.00006591  0.00000081  0.0021726 0.0000
109  -1458.0219066477  -0.000000750199 0.00005823  0.00000064  0.0019790 0.0000
110  -1458.0219072219  -0.000000574190 0.00005043  0.00000049  0.0018606 0.0000
111  -1458.0219076740  -0.000000452103 0.00215236  0.00001929  0.0018099 0.0000
112  -1458.0219011512   0.000006522776 0.00020772  0.00000488  0.0026506 0.0000
113  -1458.0219056840  -0.000004532810 0.00023915  0.00000292  0.0022140 0.0000
114  -1458.0219093547  -0.000003670724 0.00043522  0.00000312  0.0014948 0.0000
115  -1458.0219122724  -0.000002917637 0.00244626  0.00001536  0.0007827 0.0000
116  -1458.0219116957   0.000000576686 0.00007953  0.00000111  0.0010155 0.0000
117  -1458.0219122366  -0.000000540968 0.00040639  0.00000371  0.0009519 0.0000
118  -1458.0219138124  -0.000001575734 0.00030255  0.00000289  0.0005817 0.0000
119  -1458.0219142757  -0.000000463313 0.00026708  0.00000330  0.0002326 0.0000
               *** Restarting incremental Fock matrix formation ***
                                   *** Resetting DIIS ***
120  -1458.0219113473   0.000002928354 0.00202239  0.00001670  0.0003640 0.0000
121  -1458.0218994889   0.000011858477 0.00050805  0.00000446  0.0030404 0.0000
122  -1458.0219063773  -0.000006888490 0.00043665  0.00000314  0.0018771 0.0000
123  -1458.0219090825  -0.000002705187 0.00035157  0.00000246  0.0012817 0.0000
124  -1458.0219104309  -0.000001348401 0.00137498  0.00000923  0.0008320 0.0000

               *****************************************************
               *                      ERROR                        *
               *        SCF NOT CONVERGED AFTER 125 CYCLES         *
               *****************************************************

Setting up the final grid:

General Integration Accuracy     IntAcc      ...  4.670
Radial Grid Type                 RadialGrid  ... Gauss-Chebyshev
Angular Grid (max. acc.)         AngularGrid ... Lebedev-302
Angular grid pruning method      GridPruning ... 3 (G Style)
Weight generation scheme         WeightScheme... Becke
Basis function cutoff            BFCut       ...    1.0000e-11
Integration weight cutoff        WCut        ...    1.0000e-14
Grids for H and He will be reduced by one unit

# of grid points (after initial pruning)     ...  15852 (   0.0 sec)
# of grid points (after weights+screening)   ...  15817 (   0.0 sec)
nearest neighbour list constructed           ...    0.0 sec
Grid point re-assignment to atoms done       ...    0.0 sec
Grid point division into batches done        ...    0.1 sec
Reduced shell lists constructed in    0.1 sec

Total number of grid points                  ...    15817
Total number of batches                      ...      248
Average number of points per batch           ...       63
Average number of grid points per atom       ...     7908
Average number of shells per batch           ...    16.17 (41.45%)
Average number of basis functions per batch  ...    37.50 (26.98%)
Average number of large shells per batch     ...     9.50 (58.76%)
Average number of large basis fcns per batch ...    22.33 (59.56%)
Maximum spatial batch extension              ...  28.57, 31.41, 16.81 au
Average spatial batch extension              ...   0.89,  0.95,  0.67 au

Final grid set up in    0.1 sec
Final integration                            ... done (   0.1 sec)
Change in XC energy                          ...    -0.000530099
Integrated number of electrons               ...    35.000022591
Previous integrated no of electrons          ...    35.000427566

---------------
SCF CONVERGENCE
---------------

  Last Energy change         ...   -1.3484e-06  Tolerance :   1.0000e-08
  Last MAX-Density change    ...    1.3750e-03  Tolerance :   1.0000e-07
  Last RMS-Density change    ...    9.2296e-06  Tolerance :   5.0000e-09
  Last DIIS Error            ...    8.3198e-04  Tolerance :   5.0000e-07

             **** DENSITY FILE WAS UPDATED (41_CoO.scfp) ****
             **** ENERGY FILE WAS UPDATED (41_CoO.en.tmp) ****

     --------------------------------------------------------------------
                                      WARNING
     The wavefunction IS NOT YET CONVERGED! It shows however signs of
     convergence. Therefore the wavefunction will be stored and can be
     used as input for another calculation. 
     DO NOT USE THIS WAVEFUNCTION  FOR ANYHTING ELSE. It is NOT RELIABLE
     --------------------------------------------------------------------

-------
TIMINGS
-------

Total SCF time: 0 days 0 hours 0 min 18 sec 

Total time                  ....      18.851 sec
Sum of individual times     ....      18.419 sec  ( 97.7%)

Fock matrix formation       ....      17.260 sec  ( 91.6%)
  Split-RI-J                ....      14.537 sec  ( 84.2% of F)
  XC integration            ....       1.954 sec  ( 11.3% of F)
    Basis function eval.    ....       0.231 sec  ( 11.8% of XC)
    Density eval.           ....       0.266 sec  ( 13.6% of XC)
    XC-Functional eval.     ....       0.066 sec  (  3.4% of XC)
    XC-Potential eval.      ....       0.770 sec  ( 39.4% of XC)
Diagonalization             ....       0.619 sec  (  3.3%)
Density matrix formation    ....       0.077 sec  (  0.4%)
Population analysis         ....       0.000 sec  (  0.0%)
Initial guess               ....       0.121 sec  (  0.6%)
Orbital Transformation      ....       0.000 sec  (  0.0%)
Orbital Orthonormalization  ....       0.000 sec  (  0.0%)
DIIS solution               ....       0.211 sec  (  1.1%)
Grid generation             ....       0.131 sec  (  0.7%)


-------------------------------------------------------------------------------
                          DFT DISPERSION CORRECTION                            
                                                                               
                              DFTD3 V3.1  Rev 1                                
                          USING Becke-Johnson damping                          
-------------------------------------------------------------------------------
The TPSS functional is recognized
Active option DFTDOPT                   ...         4   

molecular C6(AA) [au] = 537.083127 


            DFT-D V3
 parameters
 s6 scaling factor         :     1.0000 
 a1 scaling factor         :     0.4535 
 s8 scaling factor         :     1.9435 
 a2 scaling factor         :     4.4752 
 ad hoc parameters k1-k3   :    16.0000     1.3333    -4.0000 

 Edisp/kcal,au: -0.567710600597  -0.000904704333 
 E6   /kcal   :  -0.226474825 
 E8   /kcal   :  -0.341235776 
 % E8         :  60.107346193 

-------------------------   ----------------
Dispersion correction           -0.000904704
-------------------------   ----------------


-------------------------   --------------------
FINAL SINGLE POINT ENERGY     -1458.023345234074   (Wavefunction not fully converged!)
-------------------------   --------------------



           ************************************************************
           *        Program running with 24 parallel MPI-processes    *
           *              working on a common directory               *
           ************************************************************
------------------------------------------------------------------------------
                         ORCA SCF GRADIENT CALCULATION
------------------------------------------------------------------------------

Gradient of the Kohn-Sham DFT energy:
Kohn-Sham wavefunction type      ... UKS
Hartree-Fock exchange scaling    ...    0.000
Number of operators              ...    2
Number of atoms                  ...    2
Basis set dimensions             ...  139
Integral neglect threshold       ... 2.5e-11
Integral primitive cutoff        ... 2.5e-12

Nuclear repulsion gradient       ... done
One Electron Gradient            ... done
Pre-screening matrix             ... done
RI-J gradient                    ... done
Exchange-correlation gradient    ... done
Dispersion correction            ... done

------------------
CARTESIAN GRADIENT
------------------

   1   Co  :   -0.000000001    0.000000003   -0.085985877
   2   O   :    0.000000001    0.000000003    0.085960690

Difference to translation invariance:
           :    0.0000000007    0.0000000067   -0.0000251873

Norm of the cartesian gradient     ...    0.1215845848
RMS gradient                       ...    0.0496366989
MAX gradient                       ...    0.0859858771

-------
TIMINGS
-------

Total SCF gradient time            ...        4.271 sec

One electron gradient       ....       0.063 sec  (  1.5%)
Prescreening matrices       ....       3.383 sec  ( 79.2%)
RI-J Coulomb gradient       ....       0.236 sec  (  5.5%)
XC gradient                 ....       0.074 sec  (  1.7%)
------------------------------------------------------------------------------
                         ORCA GEOMETRY RELAXATION STEP
------------------------------------------------------------------------------

Reading the OPT-File                    .... done
Getting information on internals        .... done
Copying old internal coords+grads       .... done
Making the new internal coordinates     .... (new redundants).... done
Validating the new internal coordinates .... (new redundants).... done
Calculating the B-matrix                .... done
Calculating the G,G- and P matrices     .... done
Transforming gradient to internals      .... done
Projecting the internal gradient        .... done
Number of atoms                         ....   2
Number of internal coordinates          ....   1
Current Energy                          .... -1458.023345234 Eh
Current gradient norm                   ....     0.121584585 Eh/bohr
Maximum allowed component of the step   ....  0.300
Current trust radius                    ....  0.300
Evaluating the initial hessian          ....  (Almloef) done
Projecting the Hessian                  .... done
Forming the augmented Hessian           .... done
Diagonalizing the augmented Hessian     .... done
Last element of RFO vector              ....  0.990347874
Lowest eigenvalues of augmented Hessian:
 -0.012032385
Length of the computed step             ....  0.139954935
The final length of the internal step   ....  0.139954935
Converting the step to cartesian space:
 Initial RMS(Int)=    0.1399549346
Transforming coordinates:
 Iter   0:  RMS(Cart)=    0.0404015096 RMS(Int)=    0.1399549346
 Iter   1:  RMS(Cart)=    0.0000000000 RMS(Int)=    0.0000000000
done
Storing new coordinates                 .... done

                                .--------------------.
          ----------------------|Geometry convergence|-------------------------
          Item                value                   Tolerance       Converged
          ---------------------------------------------------------------------
          RMS gradient        0.0859732834            0.0001000000      NO
          MAX gradient        0.0859732834            0.0003000000      NO
          RMS step            0.1399549346            0.0020000000      NO
          MAX step            0.1399549346            0.0040000000      NO
          ........................................................
          Max(Bonds)      0.0741      Max(Angles)    0.00
          Max(Dihed)        0.00      Max(Improp)    0.00
          ---------------------------------------------------------------------

The optimization has not yet converged - more geometry cycles are needed


    ---------------------------------------------------------------------------
                         Redundant Internal Coordinates
                            (Angstroem and degrees)

        Definition                    Value    dE/dq     Step     New-Value
    ----------------------------------------------------------------------------
     1. B(O   1,Co  0)                2.0000  0.085973 -0.0741    1.9259   
    ----------------------------------------------------------------------------

         *************************************************************
         *                GEOMETRY OPTIMIZATION CYCLE   2            *
         *************************************************************
---------------------------------
CARTESIAN COORDINATES (ANGSTROEM)
---------------------------------
  Co     0.000000    0.000000    0.037030
  O      0.000000    0.000000    1.962970

----------------------------
CARTESIAN COORDINATES (A.U.)
----------------------------
  NO LB      ZA    FRAG     MASS         X           Y           Z
   0 Co   27.0000    0    58.930    0.000000    0.000000    0.069977
   1 O     8.0000    0    15.999    0.000000    0.000000    3.709475

--------------------------------
INTERNAL COORDINATES (ANGSTROEM)
--------------------------------
 Co     0   0   0     0.000000000000     0.00000000     0.00000000
 O      1   0   0     1.925939038411     0.00000000     0.00000000

---------------------------
INTERNAL COORDINATES (A.U.)
---------------------------
 Co     0   0   0     0.000000000000     0.00000000     0.00000000
 O      1   0   0     3.639497333224     0.00000000     0.00000000



           ************************************************************
           *        Program running with 24 parallel MPI-processes    *
           *              working on a common directory               *
           ************************************************************
 One Electron integrals                  ... done
 Pre-screening matrix                    ... done


           ************************************************************
           *        Program running with 24 parallel MPI-processes    *
           *              working on a common directory               *
           ************************************************************

Diagonalization of the overlap matrix:
Smallest eigenvalue                        ... 1.494e-04
Time for diagonalization                   ...    0.006 sec
Threshold for overlap eigenvalues          ... 1.000e-08
Number of eigenvalues below threshold      ... 0
Time for construction of square roots      ...    0.002 sec
Total time needed                          ...    0.008 sec

-------------------
DFT GRID GENERATION
-------------------

General Integration Accuracy     IntAcc      ...  4.340
Radial Grid Type                 RadialGrid  ... Gauss-Chebyshev
Angular Grid (max. acc.)         AngularGrid ... Lebedev-110
Angular grid pruning method      GridPruning ... 3 (G Style)
Weight generation scheme         WeightScheme... Becke
Basis function cutoff            BFCut       ...    1.0000e-11
Integration weight cutoff        WCut        ...    1.0000e-14
Grids for H and He will be reduced by one unit

# of grid points (after initial pruning)     ...   4628 (   0.0 sec)
# of grid points (after weights+screening)   ...   4603 (   0.0 sec)
nearest neighbour list constructed           ...    0.0 sec
Grid point re-assignment to atoms done       ...    0.0 sec
Grid point division into batches done        ...    0.0 sec
Reduced shell lists constructed in    0.0 sec

Total number of grid points                  ...     4603
Total number of batches                      ...       73
Average number of points per batch           ...       63
Average number of grid points per atom       ...     2302
Average number of shells per batch           ...    20.80 (53.33%)
Average number of basis functions per batch  ...    59.20 (42.59%)
Average number of large shells per batch     ...    15.20 (73.08%)
Average number of large basis fcns per batch ...    41.60 (70.27%)
Maximum spatial batch extension              ...  19.25, 28.73, 16.15 au
Average spatial batch extension              ...   1.01,  1.32,  0.89 au

Time for grid setup =    0.020 sec

--------------
SCF ITERATIONS
--------------
ITER       Energy         Delta-E        Max-DP      RMS-DP      [F,P]     Damp
               ***  Starting incremental Fock matrix formation  ***
  0  -1458.0335017504   0.000000000000 0.00599660  0.00006620  0.0103345 0.7000
  1  -1458.0336475045  -0.000145754114 0.00397291  0.00005686  0.0061721 0.7000
                               ***Turning on DIIS***
  2  -1458.0337445954  -0.000097090892 0.01008366  0.00014237  0.0042897 0.0000
  3  -1458.0339844210  -0.000239825619 0.00838377  0.00006824  0.0064391 0.0000
  4  -1458.0340197128  -0.000035291790 0.00331594  0.00003886  0.0081733 0.0000
  5  -1458.0340817410  -0.000062028187 0.00311319  0.00002861  0.0031347 0.0000
  6  -1458.0341167948  -0.000035053831 0.00283496  0.00002635  0.0019575 0.0000
  7  -1458.0341372062  -0.000020411358 0.01519163  0.00011452  0.0009057 0.0000
  8  -1458.0341796954  -0.000042489294 0.00048075  0.00000502  0.0034969 0.0000
  9  -1458.0341863674  -0.000006671953 0.00066590  0.00000682  0.0026639 0.0000
 10  -1458.0341916900  -0.000005322652 0.00066447  0.00000581  0.0020200 0.0000
 11  -1458.0341946316  -0.000002941582 0.00020100  0.00000302  0.0017692 0.0000
 12  -1458.0341940362   0.000000595409 0.00145895  0.00001730  0.0019062 0.0000
 13  -1458.0342025818  -0.000008545551 0.00546074  0.00006314  0.0006961 0.0000
 14  -1458.0342182445  -0.000015662703 0.00273322  0.00002067  0.0007867 0.0000
 15  -1458.0342219835  -0.000003739043 0.00008288  0.00000076  0.0013997 0.0000
 16  -1458.0342225248  -0.000000541311 0.00034647  0.00000386  0.0012799 0.0000
 17  -1458.0342239636  -0.000001438812 0.00186203  0.00002138  0.0009729 0.0000
 18  -1458.0342280259  -0.000004062301 0.00512081  0.00005463  0.0006938 0.0000
 19  -1458.0342363850  -0.000008359070 0.00486917  0.00004554  0.0004744 0.0000
               *** Restarting incremental Fock matrix formation ***
                                   *** Resetting DIIS ***
 20  -1458.0342379420  -0.000001556983 0.00296086  0.00002702  0.0015499 0.0000
 21  -1458.0342048931   0.000033048895 0.00069820  0.00001057  0.0045272 0.0000
 22  -1458.0342270731  -0.000022179960 0.00068672  0.00000715  0.0029097 0.0000
 23  -1458.0342354977  -0.000008424670 0.00058027  0.00000432  0.0017957 0.0000
 24  -1458.0342390631  -0.000003565362 0.00048574  0.00000371  0.0011006 0.0000
 25  -1458.0342408152  -0.000001752105 0.00251212  0.00001860  0.0005602 0.0000
 26  -1458.0342398305   0.000000984694 0.00034550  0.00000304  0.0009971 0.0000
 27  -1458.0342414351  -0.000001604554 0.00039299  0.00000357  0.0005716 0.0000
 28  -1458.0342419124  -0.000000477333 0.00046853  0.00000496  0.0003048 0.0000
 29  -1458.0342417803   0.000000132087 0.00006084  0.00000064  0.0003935 0.0000
 30  -1458.0342418753  -0.000000095022 0.00063137  0.00000692  0.0003507 0.0000
 31  -1458.0342419662  -0.000000090919 0.00046710  0.00000402  0.0000932 0.0000
 32  -1458.0342420806  -0.000000114392 0.00095427  0.00001026  0.0001452 0.0000
 33  -1458.0342423399  -0.000000259305 0.00097109  0.00001094  0.0001594 0.0000
 34  -1458.0342425372  -0.000000197258 0.00007929  0.00000089  0.0000621 0.0000
 35  -1458.0342424672   0.000000070037 0.00030915  0.00000346  0.0000914 0.0000
 36  -1458.0342424511   0.000000016064 0.00006478  0.00000073  0.0000287 0.0000
 37  -1458.0342424601  -0.000000008956 0.00004798  0.00000051  0.0000201 0.0000
 38  -1458.0342424570   0.000000003085 0.00003977  0.00000042  0.0000137 0.0000
 39  -1458.0342425038  -0.000000046842 0.00008286  0.00000090  0.0000104 0.0000
               *** Restarting incremental Fock matrix formation ***
                                   *** Resetting DIIS ***
 40  -1458.0342437110  -0.000001207182 0.00015444  0.00000203  0.0000787 0.0000
 41  -1458.0342437681  -0.000000057121 0.00021067  0.00000159  0.0000911 0.0000
 42  -1458.0342436843   0.000000083778 0.00023901  0.00000149  0.0002059 0.0000
 43  -1458.0342438146  -0.000000130225 0.00004513  0.00000054  0.0000384 0.0000
 44  -1458.0342438761  -0.000000061584 0.00006342  0.00000070  0.0000315 0.0000
 45  -1458.0342438366   0.000000039538 0.00002507  0.00000028  0.0000195 0.0000
 46  -1458.0342438247   0.000000011928 0.00000471  0.00000004  0.0000180 0.0000
 47  -1458.0342437929   0.000000031764 0.00002912  0.00000026  0.0000129 0.0000
 48  -1458.0342437353   0.000000057606 0.00006473  0.00000050  0.0000187 0.0000
 49  -1458.0342437894  -0.000000054094 0.00002857  0.00000033  0.0000158 0.0000
 50  -1458.0342437348   0.000000054648 0.00001782  0.00000019  0.0000134 0.0000
 51  -1458.0342437631  -0.000000028380 0.00005987  0.00000067  0.0000133 0.0000
 52  -1458.0342437544   0.000000008709 0.00006802  0.00000077  0.0000061 0.0000
                 **** Energy Check signals convergence ****

               *****************************************************
               *                     SUCCESS                       *
               *           SCF CONVERGED AFTER  53 CYCLES          *
               *****************************************************

Setting up the final grid:

General Integration Accuracy     IntAcc      ...  4.670
Radial Grid Type                 RadialGrid  ... Gauss-Chebyshev
Angular Grid (max. acc.)         AngularGrid ... Lebedev-302
Angular grid pruning method      GridPruning ... 3 (G Style)
Weight generation scheme         WeightScheme... Becke
Basis function cutoff            BFCut       ...    1.0000e-11
Integration weight cutoff        WCut        ...    1.0000e-14
Grids for H and He will be reduced by one unit

# of grid points (after initial pruning)     ...  15852 (   0.0 sec)
# of grid points (after weights+screening)   ...  15817 (   0.0 sec)
nearest neighbour list constructed           ...    0.0 sec
Grid point re-assignment to atoms done       ...    0.0 sec
Grid point division into batches done        ...    0.1 sec
Reduced shell lists constructed in    0.1 sec

Total number of grid points                  ...    15817
Total number of batches                      ...      248
Average number of points per batch           ...       63
Average number of grid points per atom       ...     7908
Average number of shells per batch           ...    16.17 (41.45%)
Average number of basis functions per batch  ...    37.50 (26.98%)
Average number of large shells per batch     ...     9.25 (57.22%)
Average number of large basis fcns per batch ...    21.25 (56.67%)
Maximum spatial batch extension              ...  28.57, 31.41, 16.65 au
Average spatial batch extension              ...   0.89,  0.95,  0.66 au

Final grid set up in    0.1 sec
Final integration                            ... done (   0.1 sec)
Change in XC energy                          ...    -0.000523061
Integrated number of electrons               ...    35.000024798
Previous integrated no of electrons          ...    35.000550964
Total Energy       :        -1458.03476682 Eh          -39675.14305 eV
  Last Energy change         ...   -1.5507e-09  Tolerance :   1.0000e-08
  Last MAX-Density change    ...    4.7484e-05  Tolerance :   1.0000e-07
             **** THE GBW FILE WAS UPDATED (41_CoO.gbw) ****
             **** DENSITY FILE WAS UPDATED (41_CoO.scfp) ****
             **** ENERGY FILE WAS UPDATED (41_CoO.en.tmp) ****
----------------------
UHF SPIN CONTAMINATION
----------------------

Warning: in a DFT calculation there is little theoretical justification to 
         calculate <S**2> as in Hartree-Fock theory. We will do it anyways
         but you should keep in mind that the values have only limited relevance

Expectation value of <S**2>     :     3.772237
Ideal value S*(S+1) for S=1.5   :     3.750000
Deviation                       :     0.022237

             **** THE GBW FILE WAS UPDATED (41_CoO.gbw) ****
             **** DENSITY FILE WAS UPDATED (41_CoO.scfp) ****
Total SCF time: 0 days 0 hours 0 min 9 sec 


-------------------------------------------------------------------------------
                          DFT DISPERSION CORRECTION                            
                                                                               
                              DFTD3 V3.1  Rev 1                                
                          USING Becke-Johnson damping                          
-------------------------------------------------------------------------------
-------------------------   ----------------
Dispersion correction           -0.000805853
-------------------------   ----------------


-------------------------   --------------------
FINAL SINGLE POINT ENERGY     -1458.035572669926
-------------------------   --------------------



           ************************************************************
           *        Program running with 24 parallel MPI-processes    *
           *              working on a common directory               *
           ************************************************************
------------------------------------------------------------------------------
                         ORCA SCF GRADIENT CALCULATION
------------------------------------------------------------------------------

Gradient of the Kohn-Sham DFT energy:
Kohn-Sham wavefunction type      ... UKS
Hartree-Fock exchange scaling    ...    0.000
Number of operators              ...    2
Number of atoms                  ...    2
Basis set dimensions             ...  139
Integral neglect threshold       ... 2.5e-11
Integral primitive cutoff        ... 2.5e-12

Nuclear repulsion gradient       ... done
One Electron Gradient            ... done
Pre-screening matrix             ... done
RI-J gradient                    ... done
Exchange-correlation gradient    ... done
Dispersion correction            ... done

------------------
CARTESIAN GRADIENT
------------------

   1   Co  :    0.000000004    0.000000003   -0.086906268
   2   O   :   -0.000000000   -0.000000001    0.086753671

Difference to translation invariance:
           :    0.0000000041    0.0000000023   -0.0001525975

Norm of the cartesian gradient     ...    0.1227961680
RMS gradient                       ...    0.0501313257
MAX gradient                       ...    0.0869062684

-------
TIMINGS
-------

Total SCF gradient time            ...        4.279 sec

One electron gradient       ....       0.054 sec  (  1.3%)
Prescreening matrices       ....       3.395 sec  ( 79.3%)
RI-J Coulomb gradient       ....       0.234 sec  (  5.5%)
XC gradient                 ....       0.075 sec  (  1.8%)
------------------------------------------------------------------------------
                         ORCA GEOMETRY RELAXATION STEP
------------------------------------------------------------------------------

Reading the OPT-File                    .... done
Getting information on internals        .... done
Copying old internal coords+grads       .... done
Making the new internal coordinates     .... (new redundants).... done
Validating the new internal coordinates .... (new redundants).... done
Calculating the B-matrix                .... done
Calculating the G,G- and P matrices     .... done
Transforming gradient to internals      .... done
Projecting the internal gradient        .... done
Number of atoms                         ....   2
Number of internal coordinates          ....   1
Current Energy                          .... -1458.035572670 Eh
Current gradient norm                   ....     0.122796168 Eh/bohr
Maximum allowed component of the step   ....  0.300
Current trust radius                    ....  0.300
Updating the Hessian (BFGS)             .... done
Forming the augmented Hessian           .... done
Diagonalizing the augmented Hessian     .... done
Last element of RFO vector              ....  0.694540828
Lowest eigenvalues of augmented Hessian:
 -0.089944471
Length of the computed step             ....  1.035868968
Warning: the length of the step is outside the trust region - taking restricted step instead
The input lambda is                     ....    -0.089944
   iter:   1  x=   -0.128341  g=   25.602054 f(x)=     0.983025
   iter:   2  x=   -0.178554  g=    8.259361 f(x)=     0.414728
   iter:   3  x=   -0.234169  g=    2.941103 f(x)=     0.163571
   iter:   4  x=   -0.277407  g=    1.271419 f(x)=     0.054972
   iter:   5  x=   -0.293883  g=    0.755249 f(x)=     0.012444
   iter:   6  x=   -0.295540  g=    0.632803 f(x)=     0.001048
   iter:   7  x=   -0.295554  g=    0.621998 f(x)=     0.000009
   iter:   8  x=   -0.295554  g=    0.621905 f(x)=     0.000000
   iter:   9  x=   -0.295554  g=    0.621905 f(x)=    -0.000000
The output lambda is                    ....    -0.295554 (9 iterations)
The final length of the internal step   ....  0.300000000
Converting the step to cartesian space:
 Initial RMS(Int)=    0.3000000000
Transforming coordinates:
 Iter   0:  RMS(Cart)=    0.0866025404 RMS(Int)=    0.3000000000
 Iter   1:  RMS(Cart)=    0.0000000000 RMS(Int)=    0.0000000000
done
Storing new coordinates                 .... done

                                .--------------------.
          ----------------------|Geometry convergence|-------------------------
          Item                value                   Tolerance       Converged
          ---------------------------------------------------------------------
          Energy change      -0.0122274359            0.0000050000      NO
          RMS gradient        0.0868299696            0.0001000000      NO
          MAX gradient        0.0868299696            0.0003000000      NO
          RMS step            0.3000000000            0.0020000000      NO
          MAX step            0.3000000000            0.0040000000      NO
          ........................................................
          Max(Bonds)      0.1588      Max(Angles)    0.00
          Max(Dihed)        0.00      Max(Improp)    0.00
          ---------------------------------------------------------------------

The optimization has not yet converged - more geometry cycles are needed


    ---------------------------------------------------------------------------
                         Redundant Internal Coordinates
                            (Angstroem and degrees)

        Definition                    Value    dE/dq     Step     New-Value
    ----------------------------------------------------------------------------
     1. B(O   1,Co  0)                1.9259  0.086830 -0.1588    1.7672   
    ----------------------------------------------------------------------------

         *************************************************************
         *                GEOMETRY OPTIMIZATION CYCLE   3            *
         *************************************************************
---------------------------------
CARTESIAN COORDINATES (ANGSTROEM)
---------------------------------
  Co     0.000000    0.000000    0.116407
  O      0.000000    0.000000    1.883593

----------------------------
CARTESIAN COORDINATES (A.U.)
----------------------------
  NO LB      ZA    FRAG     MASS         X           Y           Z
   0 Co   27.0000    0    58.930    0.000000    0.000000    0.219977
   1 O     8.0000    0    15.999    0.000000    0.000000    3.559475

--------------------------------
INTERNAL COORDINATES (ANGSTROEM)
--------------------------------
 Co     0   0   0     0.000000000000     0.00000000     0.00000000
 O      1   0   0     1.767185875921     0.00000000     0.00000000

---------------------------
INTERNAL COORDINATES (A.U.)
---------------------------
 Co     0   0   0     0.000000000000     0.00000000     0.00000000
 O      1   0   0     3.339497333224     0.00000000     0.00000000



           ************************************************************
           *        Program running with 24 parallel MPI-processes    *
           *              working on a common directory               *
           ************************************************************
 One Electron integrals                  ... done
 Pre-screening matrix                    ... done


           ************************************************************
           *        Program running with 24 parallel MPI-processes    *
           *              working on a common directory               *
           ************************************************************

Diagonalization of the overlap matrix:
Smallest eigenvalue                        ... 1.142e-04
Time for diagonalization                   ...    0.005 sec
Threshold for overlap eigenvalues          ... 1.000e-08
Number of eigenvalues below threshold      ... 0
Time for construction of square roots      ...    0.003 sec
Total time needed                          ...    0.007 sec

-------------------
DFT GRID GENERATION
-------------------

General Integration Accuracy     IntAcc      ...  4.340
Radial Grid Type                 RadialGrid  ... Gauss-Chebyshev
Angular Grid (max. acc.)         AngularGrid ... Lebedev-110
Angular grid pruning method      GridPruning ... 3 (G Style)
Weight generation scheme         WeightScheme... Becke
Basis function cutoff            BFCut       ...    1.0000e-11
Integration weight cutoff        WCut        ...    1.0000e-14
Grids for H and He will be reduced by one unit

# of grid points (after initial pruning)     ...   4628 (   0.0 sec)
# of grid points (after weights+screening)   ...   4603 (   0.0 sec)
nearest neighbour list constructed           ...    0.0 sec
Grid point re-assignment to atoms done       ...    0.0 sec
Grid point division into batches done        ...    0.0 sec
Reduced shell lists constructed in    0.0 sec

Total number of grid points                  ...     4603
Total number of batches                      ...       73
Average number of points per batch           ...       63
Average number of grid points per atom       ...     2302
Average number of shells per batch           ...    21.60 (55.38%)
Average number of basis functions per batch  ...    64.80 (46.62%)
Average number of large shells per batch     ...    16.40 (75.93%)
Average number of large basis fcns per batch ...    46.80 (72.22%)
Maximum spatial batch extension              ...  19.55, 28.73, 15.95 au
Average spatial batch extension              ...   1.01,  1.33,  0.87 au

Time for grid setup =    0.029 sec

--------------
SCF ITERATIONS
--------------
ITER       Energy         Delta-E        Max-DP      RMS-DP      [F,P]     Damp
               ***  Starting incremental Fock matrix formation  ***
  0  -1458.0545671760   0.000000000000 0.01284911  0.00014511  0.0254612 0.7000
  1  -1458.0554287742  -0.000861598277 0.00682811  0.00012511  0.0141360 0.7000
                               ***Turning on DIIS***
  2  -1458.0560257709  -0.000596996671 0.02260518  0.00032077  0.0098020 0.0000
  3  -1458.0573402047  -0.001314433749 0.01786011  0.00016072  0.0150550 0.0000
  4  -1458.0574219735  -0.000081768882 0.00562255  0.00008387  0.0206257 0.0000
  5  -1458.0577736872  -0.000351713650 0.00624498  0.00005596  0.0072433 0.0000
  6  -1458.0579136022  -0.000139914955 0.00516517  0.00004117  0.0037223 0.0000
  7  -1458.0579638492  -0.000050247081 0.00422501  0.00003440  0.0016906 0.0000
  8  -1458.0579941901  -0.000030340841 0.00436290  0.00003429  0.0012480 0.0000
  9  -1458.0580190072  -0.000024817107 0.00380046  0.00003092  0.0011359 0.0000
 10  -1458.0580377065  -0.000018699303 0.00288937  0.00002617  0.0010085 0.0000
 11  -1458.0580512414  -0.000013534922 0.01219672  0.00013329  0.0007753 0.0000
 12  -1458.0580898057  -0.000038564301 0.00010898  0.00000111  0.0023356 0.0000
 13  -1458.0580911002  -0.000001294463 0.00035047  0.00000285  0.0020485 0.0000
 14  -1458.0580903752   0.000000725011 0.00066744  0.00000621  0.0020524 0.0000
 15  -1458.0580877015   0.000002673652 0.00048978  0.00000446  0.0022798 0.0000
 16  -1458.0580865657   0.000001135761 0.00334587  0.00002788  0.0022901 0.0000
 17  -1458.0580729789   0.000013586859 0.00140856  0.00001445  0.0044638 0.0000
 18  -1458.0580926397  -0.000019660841 0.00147907  0.00001106  0.0020263 0.0000
 19  -1458.0581006402  -0.000008000500 0.00708207  0.00006369  0.0005466 0.0000
               *** Restarting incremental Fock matrix formation ***
                                   *** Resetting DIIS ***
 20  -1458.0581044839  -0.000003843699 0.00415259  0.00004410  0.0027581 0.0000
 21  -1458.0580260568   0.000078427088 0.00126593  0.00002283  0.0093772 0.0000
 22  -1458.0580870649  -0.000061008059 0.00127839  0.00000930  0.0045818 0.0000
 23  -1458.0581060110  -0.000018946092 0.00122291  0.00000911  0.0026005 0.0000
 24  -1458.0581139991  -0.000007988143 0.00556660  0.00005063  0.0007858 0.0000
 25  -1458.0581112709   0.000002728243 0.00015303  0.00000146  0.0026697 0.0000
 26  -1458.0581128957  -0.000001624828 0.00015682  0.00000121  0.0025236 0.0000
 27  -1458.0581142474  -0.000001351682 0.00022122  0.00000176  0.0023673 0.0000
 28  -1458.0581161154  -0.000001868033 0.00017156  0.00000136  0.0021118 0.0000
 29  -1458.0581172037  -0.000001088286 0.00132074  0.00001198  0.0019123 0.0000
 30  -1458.0581223164  -0.000005112644 0.00076157  0.00001004  0.0011373 0.0000
 31  -1458.0581216575   0.000000658849 0.00324941  0.00002831  0.0009159 0.0000
 32  -1458.0581254864  -0.000003828870 0.00018887  0.00000190  0.0003663 0.0000
 33  -1458.0581258652  -0.000000378844 0.00055208  0.00000495  0.0003445 0.0000
 34  -1458.0581264661  -0.000000600870 0.00176399  0.00001550  0.0003857 0.0000
 35  -1458.0581279421  -0.000001476045 0.00698075  0.00006160  0.0002938 0.0000
 36  -1458.0581320863  -0.000004144199 0.00117339  0.00001043  0.0001574 0.0000
 37  -1458.0581322419  -0.000000155589 0.00429662  0.00003706  0.0003032 0.0000
 38  -1458.0581336168  -0.000001374824 0.00075835  0.00000651  0.0002223 0.0000
 39  -1458.0581338558  -0.000000239000 0.00355535  0.00003000  0.0001982 0.0000
               *** Restarting incremental Fock matrix formation ***
                                   *** Resetting DIIS ***
 40  -1458.0581338309   0.000000024809 0.00036506  0.00000353  0.0001619 0.0000
 41  -1458.0581335138   0.000000317113 0.00039066  0.00000300  0.0004265 0.0000
 42  -1458.0581338405  -0.000000326634 0.00007370  0.00000104  0.0001065 0.0000
 43  -1458.0581337742   0.000000066277 0.00004101  0.00000063  0.0001078 0.0000
 44  -1458.0581338613  -0.000000087122 0.00001504  0.00000020  0.0000185 0.0000
 45  -1458.0581338170   0.000000044305 0.00001473  0.00000009  0.0000038 0.0000
 46  -1458.0581338456  -0.000000028615 0.00001086  0.00000007  0.0000027 0.0000
 47  -1458.0581338305   0.000000015093 0.00000708  0.00000005  0.0000019 0.0000
 48  -1458.0581338285   0.000000002056 0.00000372  0.00000003  0.0000019 0.0000
 49  -1458.0581338050   0.000000023448 0.00002748  0.00000018  0.0000020 0.0000
 50  -1458.0581338639  -0.000000058835 0.00000836  0.00000007  0.0000018 0.0000
                 **** Energy Check signals convergence ****

               *****************************************************
               *                     SUCCESS                       *
               *           SCF CONVERGED AFTER  51 CYCLES          *
               *****************************************************

Setting up the final grid:

General Integration Accuracy     IntAcc      ...  4.670
Radial Grid Type                 RadialGrid  ... Gauss-Chebyshev
Angular Grid (max. acc.)         AngularGrid ... Lebedev-302
Angular grid pruning method      GridPruning ... 3 (G Style)
Weight generation scheme         WeightScheme... Becke
Basis function cutoff            BFCut       ...    1.0000e-11
Integration weight cutoff        WCut        ...    1.0000e-14
Grids for H and He will be reduced by one unit

# of grid points (after initial pruning)     ...  15852 (   0.0 sec)
# of grid points (after weights+screening)   ...  15815 (   0.0 sec)
nearest neighbour list constructed           ...    0.0 sec
Grid point re-assignment to atoms done       ...    0.0 sec
Grid point division into batches done        ...    0.1 sec
Reduced shell lists constructed in    0.1 sec

Total number of grid points                  ...    15815
Total number of batches                      ...      248
Average number of points per batch           ...       63
Average number of grid points per atom       ...     7908
Average number of shells per batch           ...    16.08 (41.24%)
Average number of basis functions per batch  ...    37.58 (27.04%)
Average number of large shells per batch     ...     9.42 (58.55%)
Average number of large basis fcns per batch ...    21.75 (57.87%)
Maximum spatial batch extension              ...  28.57, 31.41, 18.47 au
Average spatial batch extension              ...   0.89,  0.95,  0.67 au

Final grid set up in    0.1 sec
Final integration                            ... done (   0.1 sec)
Change in XC energy                          ...    -0.000598351
Integrated number of electrons               ...    35.000015146
Previous integrated no of electrons          ...    35.000522287
Total Energy       :        -1458.05873222 Eh          -39675.79518 eV
  Last Energy change         ...   -6.1532e-09  Tolerance :   1.0000e-08
  Last MAX-Density change    ...    8.5583e-06  Tolerance :   1.0000e-07
             **** THE GBW FILE WAS UPDATED (41_CoO.gbw) ****
             **** DENSITY FILE WAS UPDATED (41_CoO.scfp) ****
             **** ENERGY FILE WAS UPDATED (41_CoO.en.tmp) ****
----------------------
UHF SPIN CONTAMINATION
----------------------

Warning: in a DFT calculation there is little theoretical justification to 
         calculate <S**2> as in Hartree-Fock theory. We will do it anyways
         but you should keep in mind that the values have only limited relevance

Expectation value of <S**2>     :     3.767781
Ideal value S*(S+1) for S=1.5   :     3.750000
Deviation                       :     0.017781

             **** THE GBW FILE WAS UPDATED (41_CoO.gbw) ****
             **** DENSITY FILE WAS UPDATED (41_CoO.scfp) ****
Total SCF time: 0 days 0 hours 0 min 9 sec 


-------------------------------------------------------------------------------
                          DFT DISPERSION CORRECTION                            
                                                                               
                              DFTD3 V3.1  Rev 1                                
                          USING Becke-Johnson damping                          
-------------------------------------------------------------------------------
-------------------------   ----------------
Dispersion correction           -0.000726217
-------------------------   ----------------


-------------------------   --------------------
FINAL SINGLE POINT ENERGY     -1458.059458438428
-------------------------   --------------------



           ************************************************************
           *        Program running with 24 parallel MPI-processes    *
           *              working on a common directory               *
           ************************************************************
------------------------------------------------------------------------------
                         ORCA SCF GRADIENT CALCULATION
------------------------------------------------------------------------------

Gradient of the Kohn-Sham DFT energy:
Kohn-Sham wavefunction type      ... UKS
Hartree-Fock exchange scaling    ...    0.000
Number of operators              ...    2
Number of atoms                  ...    2
Basis set dimensions             ...  139
Integral neglect threshold       ... 2.5e-11
Integral primitive cutoff        ... 2.5e-12

Nuclear repulsion gradient       ... done
One Electron Gradient            ... done
Pre-screening matrix             ... done
RI-J gradient                    ... done
Exchange-correlation gradient    ... done
Dispersion correction            ... done

------------------
CARTESIAN GRADIENT
------------------

   1   Co  :    0.000000002    0.000000001   -0.065052019
   2   O   :   -0.000000001    0.000000007    0.064418820

Difference to translation invariance:
           :    0.0000000013    0.0000000083   -0.0006331987

Norm of the cartesian gradient     ...    0.0915508030
RMS gradient                       ...    0.0373754588
MAX gradient                       ...    0.0650520188

-------
TIMINGS
-------

Total SCF gradient time            ...        4.269 sec

One electron gradient       ....       0.052 sec  (  1.2%)
Prescreening matrices       ....       3.386 sec  ( 79.3%)
RI-J Coulomb gradient       ....       0.237 sec  (  5.6%)
XC gradient                 ....       0.081 sec  (  1.9%)
------------------------------------------------------------------------------
                         ORCA GEOMETRY RELAXATION STEP
------------------------------------------------------------------------------

Reading the OPT-File                    .... done
Getting information on internals        .... done
Copying old internal coords+grads       .... done
Making the new internal coordinates     .... (new redundants).... done
Validating the new internal coordinates .... (new redundants).... done
Calculating the B-matrix                .... done
Calculating the G,G- and P matrices     .... done
Transforming gradient to internals      .... done
Projecting the internal gradient        .... done
Number of atoms                         ....   2
Number of internal coordinates          ....   1
Current Energy                          .... -1458.059458438 Eh
Current gradient norm                   ....     0.091550803 Eh/bohr
Maximum allowed component of the step   ....  0.300
Current trust radius                    ....  0.300
Updating the Hessian (BFGS)             .... done
Forming the augmented Hessian           .... done
Diagonalizing the augmented Hessian     .... done
Last element of RFO vector              ....  0.864419861
Lowest eigenvalues of augmented Hessian:
 -0.037651920
Length of the computed step             ....  0.581627806
Warning: the length of the step is outside the trust region - taking restricted step instead
The input lambda is                     ....    -0.037652
   iter:   1  x=   -0.078497  g=    6.078879 f(x)=     0.248291
   iter:   2  x=   -0.116751  g=    2.379790 f(x)=     0.091037
   iter:   3  x=   -0.137832  g=    1.214275 f(x)=     0.025599
   iter:   4  x=   -0.142008  g=    0.886137 f(x)=     0.003700
   iter:   5  x=   -0.142136  g=    0.835650 f(x)=     0.000107
   iter:   6  x=   -0.142136  g=    0.834166 f(x)=     0.000000
   iter:   7  x=   -0.142136  g=    0.834165 f(x)=     0.000000
   iter:   8  x=   -0.142136  g=    0.834165 f(x)=     0.000000
The output lambda is                    ....    -0.142136 (8 iterations)
The final length of the internal step   ....  0.300000000
Converting the step to cartesian space:
 Initial RMS(Int)=    0.3000000000
Transforming coordinates:
 Iter   0:  RMS(Cart)=    0.0866025404 RMS(Int)=    0.3000000000
 Iter   1:  RMS(Cart)=    0.0000000000 RMS(Int)=    0.0000000000
done
Storing new coordinates                 .... done

                                .--------------------.
          ----------------------|Geometry convergence|-------------------------
          Item                value                   Tolerance       Converged
          ---------------------------------------------------------------------
          Energy change      -0.0238857685            0.0000050000      NO
          RMS gradient        0.0647354194            0.0001000000      NO
          MAX gradient        0.0647354194            0.0003000000      NO
          RMS step            0.3000000000            0.0020000000      NO
          MAX step            0.3000000000            0.0040000000      NO
          ........................................................
          Max(Bonds)      0.1588      Max(Angles)    0.00
          Max(Dihed)        0.00      Max(Improp)    0.00
          ---------------------------------------------------------------------

The optimization has not yet converged - more geometry cycles are needed


    ---------------------------------------------------------------------------
                         Redundant Internal Coordinates
                            (Angstroem and degrees)

        Definition                    Value    dE/dq     Step     New-Value
    ----------------------------------------------------------------------------
     1. B(O   1,Co  0)                1.7672  0.064735 -0.1588    1.6084   
    ----------------------------------------------------------------------------

         *************************************************************
         *                GEOMETRY OPTIMIZATION CYCLE   4            *
         *************************************************************
---------------------------------
CARTESIAN COORDINATES (ANGSTROEM)
---------------------------------
  Co     0.000000    0.000000    0.195784
  O      0.000000    0.000000    1.804216

----------------------------
CARTESIAN COORDINATES (A.U.)
----------------------------
  NO LB      ZA    FRAG     MASS         X           Y           Z
   0 Co   27.0000    0    58.930    0.000000    0.000000    0.369977
   1 O     8.0000    0    15.999    0.000000    0.000000    3.409475

[...]
 105   0.0000       5.007652       136.2651 
 106   0.0000       5.077131       138.1558 
 107   0.0000       5.448015       148.2480 
 108   0.0000       5.460479       148.5872 
 109   0.0000       6.073497       165.2683 
 110   0.0000       6.073574       165.2703 
 111   0.0000       6.174993       168.0301 
 112   0.0000       6.185478       168.3154 
 113   0.0000       6.315478       171.8529 
 114   0.0000       6.422981       174.7782 
 115   0.0000       6.429079       174.9441 
 116   0.0000       6.476477       176.2339 
 117   0.0000       6.487841       176.5431 
 118   0.0000       6.844368       186.2447 
 119   0.0000       6.857101       186.5912 
 120   0.0000       6.864914       186.8038 
 121   0.0000       7.175508       195.2555 
 122   0.0000      10.221953       278.1535 
 123   0.0000      10.226869       278.2873 
 124   0.0000      10.230933       278.3978 
 125   0.0000      10.252326       278.9800 
 126   0.0000      10.357003       281.8284 
 127   0.0000      10.360459       281.9224 
 128   0.0000      10.598686       288.4049 
 129   0.0000      10.739163       292.2275 
 130   0.0000      11.387825       309.8785 
 131   0.0000      11.388811       309.9053 
 132   0.0000      11.393210       310.0250 
 133   0.0000      11.394022       310.0471 
 134   0.0000      11.486904       312.5745 
 135   0.0000      11.505374       313.0771 
 136   0.0000      11.775814       320.4362 
 137   0.0000      11.786183       320.7183 
 138   0.0000      12.142142       330.4045 

                 SPIN DOWN ORBITALS
  NO   OCC          E(Eh)            E(eV) 
   0   1.0000    -276.706547     -7529.5680 
   1   1.0000     -32.462108      -883.3389 
   2   1.0000     -28.126423      -765.3589 
   3   1.0000     -28.125257      -765.3271 
   4   1.0000     -28.120413      -765.1953 
   5   1.0000     -18.880332      -513.7599 
   6   1.0000      -3.586811       -97.6021 
   7   1.0000      -2.300212       -62.5919 
   8   1.0000      -2.288049       -62.2610 
   9   1.0000      -2.278338       -61.9967 
  10   1.0000      -0.809404       -22.0250 
  11   1.0000      -0.320817        -8.7299 
  12   1.0000      -0.272865        -7.4250 
  13   1.0000      -0.266280        -7.2458 
  14   1.0000      -0.230283        -6.2663 
  15   1.0000      -0.187949        -5.1144 
  16   0.0000      -0.162890        -4.4325 
  17   0.0000      -0.150358        -4.0914 
  18   0.0000      -0.136617        -3.7175 
  19   0.0000      -0.108904        -2.9634 
  20   0.0000      -0.013852        -0.3769 
  21   0.0000      -0.010519        -0.2862 
  22   0.0000       0.007669         0.2087 
  23   0.0000       0.013369         0.3638 
  24   0.0000       0.041960         1.1418 
  25   0.0000       0.044507         1.2111 
  26   0.0000       0.066095         1.7985 
  27   0.0000       0.068081         1.8526 
  28   0.0000       0.070257         1.9118 
  29   0.0000       0.073171         1.9911 
  30   0.0000       0.074212         2.0194 
  31   0.0000       0.088713         2.4140 
  32   0.0000       0.118479         3.2240 
  33   0.0000       0.192921         5.2496 
  34   0.0000       0.193227         5.2580 
  35   0.0000       0.197822         5.3830 
  36   0.0000       0.210212         5.7202 
  37   0.0000       0.211099         5.7443 
  38   0.0000       0.261620         7.1190 
  39   0.0000       0.297519         8.0959 
  40   0.0000       0.309796         8.4300 
  41   0.0000       0.323773         8.8103 
  42   0.0000       0.324799         8.8382 
  43   0.0000       0.336114         9.1461 
  44   0.0000       0.498116        13.5544 
  45   0.0000       0.573584        15.6080 
  46   0.0000       0.575642        15.6640 
  47   0.0000       0.615817        16.7572 
  48   0.0000       0.692257        18.8373 
  49   0.0000       0.692647        18.8479 
  50   0.0000       0.714633        19.4462 
  51   0.0000       0.830730        22.6053 
  52   0.0000       0.834950        22.7201 
  53   0.0000       0.924060        25.1450 
  54   0.0000       0.924457        25.1557 
  55   0.0000       0.976830        26.5809 
  56   0.0000       0.978825        26.6352 
  57   0.0000       0.986662        26.8484 
  58   0.0000       1.090809        29.6824 
  59   0.0000       1.095054        29.7979 
  60   0.0000       1.110571        30.2202 
  61   0.0000       1.136380        30.9225 
  62   0.0000       1.141226        31.0544 
  63   0.0000       1.208095        32.8739 
  64   0.0000       1.221387        33.2356 
  65   0.0000       1.244135        33.8546 
  66   0.0000       1.482413        40.3385 
  67   0.0000       1.486946        40.4619 
  68   0.0000       1.676763        45.6270 
  69   0.0000       1.844873        50.2015 
  70   0.0000       1.865219        50.7552 
  71   0.0000       1.865457        50.7617 
  72   0.0000       1.918421        52.2029 
  73   0.0000       1.919621        52.2355 
  74   0.0000       2.078762        56.5660 
  75   0.0000       2.079258        56.5795 
  76   0.0000       2.121079        57.7175 
  77   0.0000       2.125931        57.8495 
  78   0.0000       2.272507        61.8381 
  79   0.0000       2.606904        70.9375 
  80   0.0000       2.608152        70.9714 
  81   0.0000       2.894196        78.7551 
  82   0.0000       3.117547        84.8328 
  83   0.0000       3.123021        84.9817 
  84   0.0000       3.149439        85.7006 
  85   0.0000       3.153874        85.8213 
  86   0.0000       3.180403        86.5432 
  87   0.0000       3.331720        90.6607 
  88   0.0000       3.339636        90.8761 
  89   0.0000       3.348530        91.1181 
  90   0.0000       3.353911        91.2646 
  91   0.0000       3.451453        93.9188 
  92   0.0000       3.778696       102.8236 
  93   0.0000       3.780110       102.8620 
  94   0.0000       3.814240       103.7908 
  95   0.0000       3.994654       108.7001 
  96   0.0000       4.001099       108.8754 
  97   0.0000       4.021338       109.4262 
  98   0.0000       4.023819       109.4937 
  99   0.0000       4.095699       111.4496 
 100   0.0000       4.229766       115.0978 
 101   0.0000       4.248890       115.6182 
 102   0.0000       4.531697       123.3138 
 103   0.0000       4.540633       123.5569 
 104   0.0000       5.051034       137.4456 
 105   0.0000       5.086286       138.4049 
 106   0.0000       5.114601       139.1754 
 107   0.0000       5.527049       150.3987 
 108   0.0000       5.539390       150.7345 
 109   0.0000       6.120583       166.5495 
 110   0.0000       6.120597       166.5499 
 111   0.0000       6.214636       169.1088 
 112   0.0000       6.225040       169.3919 
 113   0.0000       6.356895       172.9799 
 114   0.0000       6.460362       175.7954 
 115   0.0000       6.464226       175.9005 
 116   0.0000       6.550895       178.2589 
 117   0.0000       6.561909       178.5586 
 118   0.0000       6.888821       187.4544 
 119   0.0000       6.909574       188.0191 
 120   0.0000       6.911071       188.0598 
 121   0.0000       7.213229       196.2819 
 122   0.0000      10.343873       281.4711 
 123   0.0000      10.343966       281.4736 
 124   0.0000      10.366282       282.0809 
 125   0.0000      10.392571       282.7962 
 126   0.0000      10.462143       284.6894 
 127   0.0000      10.479273       285.1555 
 128   0.0000      10.666311       290.2451 
 129   0.0000      10.806102       294.0490 
 130   0.0000      11.484594       312.5117 
 131   0.0000      11.486297       312.5580 
 132   0.0000      11.491670       312.7042 
 133   0.0000      11.492575       312.7289 
 134   0.0000      11.587985       315.3251 
 135   0.0000      11.595636       315.5333 
 136   0.0000      11.859466       322.7125 
 137   0.0000      11.872214       323.0594 
 138   0.0000      12.216850       332.4374 

                    ********************************
                    * MULLIKEN POPULATION ANALYSIS *
                    ********************************

--------------------------------------------
MULLIKEN ATOMIC CHARGES AND SPIN POPULATIONS
--------------------------------------------
   0 Co:    0.517659    2.248368
   1 O :   -0.517659    0.751632
Sum of atomic charges         :   -0.0000000
Sum of atomic spin populations:    3.0000000

-----------------------------------------------------
MULLIKEN REDUCED ORBITAL CHARGES AND SPIN POPULATIONS
-----------------------------------------------------
CHARGE
  0 Cos       :     6.826007  s :     6.826007
      pz      :     4.037513  p :    12.163130
      px      :     4.060867
      py      :     4.064751
      dz2     :     1.569878  d :     7.472412
      dxz     :     1.437863
      dyz     :     1.339218
      dx2y2   :     1.126812
      dxy     :     1.998641
      f0      :     0.006026  f :     0.019336
      f+1     :     0.006214
      f-1     :     0.006780
      f+2     :     0.000105
      f-2     :     0.000138
      f+3     :     0.000049
      f-3     :     0.000024
      g0      :     0.000425  g :     0.001456
      g+1     :     0.000494
      g-1     :     0.000467
      g+2     :     0.000007
      g-2     :     0.000009
      g+3     :     0.000007
      g-3     :     0.000004
      g+4     :     0.000036
      g-4     :     0.000008
  1 O s       :     3.976048  s :     3.976048
      pz      :     1.450982  p :     4.516218
      px      :     1.485250
      py      :     1.579986
      dz2     :     0.003793  d :     0.020551
      dxz     :     0.008089
      dyz     :     0.007667
      dx2y2   :     0.000310
      dxy     :     0.000692
      f0      :     0.001824  f :     0.004841
      f+1     :     0.001166
      f-1     :     0.001101
      f+2     :     0.000252
      f-2     :     0.000495
      f+3     :     0.000002
      f-3     :     0.000002

SPIN
  0 Cos       :     0.018372  s :     0.018372
      pz      :    -0.001029  p :     0.059373
      px      :     0.033844
      py      :     0.026559
      dz2     :     0.114398  d :     2.165915
      dxz     :     0.541803
      dyz     :     0.639078
      dx2y2   :     0.870851
      dxy     :    -0.000215
      f0      :     0.000099  f :     0.004893
      f+1     :     0.002459
      f-1     :     0.002189
      f+2     :     0.000085
      f-2     :     0.000075
      f+3     :     0.000005
      f-3     :    -0.000018
      g0      :    -0.000148  g :    -0.000186
      g+1     :    -0.000048
      g-1     :    -0.000001
      g+2     :     0.000004
      g-2     :     0.000007
      g+3     :     0.000005
      g-3     :    -0.000003
      g+4     :    -0.000009
      g-4     :     0.000007
  1 O s       :     0.001273  s :     0.001273
      pz      :    -0.004616  p :     0.754833
      px      :     0.424962
      py      :     0.334487
      dz2     :     0.000087  d :    -0.003580
      dxz     :    -0.002340
      dyz     :    -0.001793
      dx2y2   :     0.000371
      dxy     :     0.000095
      f0      :     0.000021  f :    -0.000894
      f+1     :    -0.000691
      f-1     :    -0.000499
      f+2     :     0.000225
      f-2     :     0.000048
      f+3     :     0.000002
      f-3     :     0.000001


                     *******************************
                     * LOEWDIN POPULATION ANALYSIS *
                     *******************************

-------------------------------------------
LOEWDIN ATOMIC CHARGES AND SPIN POPULATIONS
-------------------------------------------
   0 Co:    0.540060    2.317595
   1 O :   -0.540060    0.682405

----------------------------------------------------
LOEWDIN REDUCED ORBITAL CHARGES AND SPIN POPULATIONS
----------------------------------------------------
CHARGE
  0 Cos       :     6.546175  s :     6.546175
      pz      :     4.132332  p :    12.235575
      px      :     4.048564
      py      :     4.054679
      dz2     :     1.665112  d :     7.509732
      dxz     :     1.417916
      dyz     :     1.328865
      dx2y2   :     1.117407
      dxy     :     1.980432
      f0      :     0.069248  f :     0.158439
      f+1     :     0.042347
      f-1     :     0.045358
      f+2     :     0.000536
      f-2     :     0.000877
      f+3     :     0.000049
      f-3     :     0.000024
      g0      :     0.005083  g :     0.010019
      g+1     :     0.002356
      g-1     :     0.002451
      g+2     :     0.000025
      g-2     :     0.000051
      g+3     :     0.000007
      g-3     :     0.000004
      g+4     :     0.000036
      g-4     :     0.000008
  1 O s       :     3.590861  s :     3.590861
      pz      :     1.641768  p :     4.508885
      px      :     1.391684
      py      :     1.475433
      dz2     :     0.146955  d :     0.275565
      dxz     :     0.058547
      dyz     :     0.056301
      dx2y2   :     0.004563
      dxy     :     0.009199
      f0      :     0.074962  f :     0.164750
      f+1     :     0.038529
      f-1     :     0.036884
      f+2     :     0.004955
      f-2     :     0.009416
      f+3     :     0.000002
      f-3     :     0.000002

SPIN
  0 Cos       :     0.020345  s :     0.020345
      pz      :    -0.002220  p :     0.126205
      px      :     0.068622
      py      :     0.059803
      dz2     :     0.110011  d :     2.126521
      dxz     :     0.530446
      dyz     :     0.621044
      dx2y2   :     0.864412
      dxy     :     0.000607
      f0      :     0.001270  f :     0.042273
      f+1     :     0.021536
      f-1     :     0.018888
      f+2     :     0.000409
      f-2     :     0.000182
      f+3     :     0.000005
      f-3     :    -0.000018
      g0      :    -0.000071  g :     0.002251
      g+1     :     0.001239
      g-1     :     0.001093
      g+2     :     0.000009
      g-2     :    -0.000019
      g+3     :     0.000005
      g-3     :    -0.000003
      g+4     :    -0.000009
      g-4     :     0.000007
  1 O s       :     0.003904  s :     0.003904
      pz      :    -0.005425  p :     0.627869
      px      :     0.357899
      py      :     0.275395
      dz2     :     0.000353  d :     0.025598
      dxz     :     0.010283
      dyz     :     0.012358
      dx2y2   :     0.003094
      dxy     :    -0.000489
      f0      :     0.000289  f :     0.025034
      f+1     :     0.009963
      f-1     :     0.011438
      f+2     :     0.003611
      f-2     :    -0.000271
      f+3     :     0.000002
      f-3     :     0.000002


                      *****************************
                      * MAYER POPULATION ANALYSIS *
                      *****************************

  NA   - Mulliken gross atomic population
  ZA   - Total nuclear charge
  QA   - Mulliken gross atomic charge
  VA   - Mayer's total valence
  BVA  - Mayer's bonded valence
  FA   - Mayer's free valence

  ATOM       NA         ZA         QA         VA         BVA        FA
  0 Co    26.4823    27.0000     0.5177     3.8712     2.0490     1.8222
  1 O      8.5177     8.0000    -0.5177     2.3452     2.0490     0.2962

  Mayer bond orders larger than 0.100000
B(  0-Co,  1-O ) :   2.0490 

-------
TIMINGS
-------

Total SCF time: 0 days 0 hours 0 min 3 sec 

Total time                  ....       3.820 sec
Sum of individual times     ....       3.632 sec  ( 95.1%)

Fock matrix formation       ....       3.333 sec  ( 87.2%)
  Split-RI-J                ....       2.501 sec  ( 75.0% of F)
  XC integration            ....       0.415 sec  ( 12.4% of F)
    Basis function eval.    ....       0.042 sec  ( 10.1% of XC)
    Density eval.           ....       0.049 sec  ( 11.7% of XC)
    XC-Functional eval.     ....       0.012 sec  (  2.8% of XC)
    XC-Potential eval.      ....       0.126 sec  ( 30.4% of XC)
Diagonalization             ....       0.103 sec  (  2.7%)
Density matrix formation    ....       0.012 sec  (  0.3%)
Population analysis         ....       0.007 sec  (  0.2%)
Initial guess               ....       0.013 sec  (  0.3%)
Orbital Transformation      ....       0.000 sec  (  0.0%)
Orbital Orthonormalization  ....       0.008 sec  (  0.2%)
DIIS solution               ....       0.035 sec  (  0.9%)
Grid generation             ....       0.128 sec  (  3.4%)


-------------------------------------------------------------------------------
                          DFT DISPERSION CORRECTION                            
                                                                               
                              DFTD3 V3.1  Rev 1                                
                          USING Becke-Johnson damping                          
-------------------------------------------------------------------------------
The TPSS functional is recognized
Active option DFTDOPT                   ...         4   

molecular C6(AA) [au] = 328.680985 


            DFT-D V3
 parameters
 s6 scaling factor         :     1.0000 
 a1 scaling factor         :     0.4535 
 s8 scaling factor         :     1.9435 
 a2 scaling factor         :     4.4752 
 ad hoc parameters k1-k3   :    16.0000     1.3333    -4.0000 

 Edisp/kcal,au: -0.448873066746  -0.000715324688 
 E6   /kcal   :  -0.179998328 
 E8   /kcal   :  -0.268874739 
 % E8         :  59.899949237 

-------------------------   ----------------
Dispersion correction           -0.000715325
-------------------------   ----------------


-------------------------   --------------------
FINAL SINGLE POINT ENERGY     -1458.069317809025
-------------------------   --------------------

                                *** OPTIMIZATION RUN DONE ***

                            ***************************************
                            *     ORCA property calculations      *
                            ***************************************

                                    ---------------------
                                    Active property flags
                                    ---------------------
   (+) Dipole Moment


------------------------------------------------------------------------------
                       ORCA ELECTRIC PROPERTIES CALCULATION
------------------------------------------------------------------------------

Dipole Moment Calculation                       ... on
Quadrupole Moment Calculation                   ... off
Polarizability Calculation                      ... off
GBWName                                         ... 41_CoO.gbw
Electron density file                           ... 41_CoO.scfp
The origin for moment calculation is the CENTER OF MASS  = ( 0.000000,  0.000000  1.009712)

-------------
DIPOLE MOMENT
-------------
                                X             Y             Z
Electronic contribution:     -0.00000       0.00000      -3.28847
Nuclear contribution   :      0.00000       0.00000       1.61802
                        -----------------------------------------
Total Dipole Moment    :     -0.00000       0.00000      -1.67045
                        -----------------------------------------
Magnitude (a.u.)       :      1.67045
Magnitude (Debye)      :      4.24595



--------------------
Rotational spectrum 
--------------------
 
Rotational constants in cm-1:     0.000000     0.507011     0.507011 
Rotational constants in MHz :     0.000000 15199.819890 15199.819890 

 Dipole components along the rotational axes: 
x,y,z [a.u.] :    -1.670452     0.000000    -0.000000 
x,y,z [Debye]:    -4.245951     0.000000    -0.000000 

 

Timings for individual modules:

Sum of individual times         ...      114.371 sec (=   1.906 min)
GTO integral calculation        ...       18.263 sec (=   0.304 min)  16.0 %
SCF iterations                  ...       67.940 sec (=   1.132 min)  59.4 %
SCF Gradient evaluation         ...       27.975 sec (=   0.466 min)  24.5 %
Geometry relaxation             ...        0.193 sec (=   0.003 min)   0.2 %
                             ****ORCA TERMINATED NORMALLY****
TOTAL RUN TIME: 0 days 0 hours 1 minutes 55 seconds 311 msec
