
                                 *****************
                                 * O   R   C   A *
                                 *****************

           --- An Ab Initio, DFT and Semiempirical electronic structure package ---

                  #######################################################
                  #                        -***-                        #
                  #          Department of theory and spectroscopy      #
                  #               Directorship: Frank Neese             #
                  #        Max Planck Institute fuer Kohlenforschung    #
                  #                Kaiser Wilhelm Platz 1               #
                  #                 D-45470 Muelheim/Ruhr               #
                  #                      Germany                        #
                  #                                                     #
                  #                  All rights reserved                #
                  #                        -***-                        #
                  #######################################################


                         Program Version 4.2.0 -  RELEASE  -


 With contributions from (in alphabetic order):
   Daniel Aravena         : Magnetic Suceptibility
   Michael Atanasov       : Ab Initio Ligand Field Theory (pilot matlab implementation)
   Alexander A. Auer      : GIAO ZORA, VPT2
   Ute Becker             : Parallelization
   Giovanni Bistoni       : ED, misc. LED, open-shell LED, HFLED
   Martin Brehm           : Molecular dynamics
   Dmytro Bykov           : SCF Hessian
   Vijay G. Chilkuri      : MRCI spin determinant printing, contributions to CSF-ICE
   Dipayan Datta          : RHF DLPNO-CCSD density
   Achintya Kumar Dutta   : EOM-CC, STEOM-CC
   Dmitry Ganyushin       : Spin-Orbit,Spin-Spin,Magnetic field MRCI
   Miquel Garcia          : C-PCM Hessian, Gaussian charge scheme
   Yang Guo               : DLPNO-NEVPT2, CIM, IAO-localization
   Andreas Hansen         : Spin unrestricted coupled pair/coupled cluster methods
   Benjamin Helmich-Paris : CASSCF linear response (MC-RPA)
   Lee Huntington         : MR-EOM, pCC
   Robert Izsak           : Overlap fitted RIJCOSX, COSX-SCS-MP3, EOM
   Christian Kollmar      : KDIIS, OOCD, Brueckner-CCSD(T), CCSD density
   Simone Kossmann        : Meta GGA functionals, TD-DFT gradient, OOMP2, MP2 Hessian
   Martin Krupicka        : AUTO-CI
   Lucas Lang             : DCDCAS
   Dagmar Lenk            : GEPOL surface, SMD
   Dimitrios Liakos       : Extrapolation schemes; Compound Job, initial MDCI parallelization
   Dimitrios Manganas     : Further ROCIS development; embedding schemes
   Dimitrios Pantazis     : SARC Basis sets
   Taras Petrenko         : DFT Hessian,TD-DFT gradient, ASA, ECA, R-Raman, ABS, FL, XAS/XES, NRVS
   Peter Pinski           : DLPNO-MP2, DLPNO-MP2 Gradient
   Christoph Reimann      : Effective Core Potentials
   Marius Retegan         : Local ZFS, SOC
   Christoph Riplinger    : Optimizer, TS searches, QM/MM, DLPNO-CCSD(T), (RO)-DLPNO pert. Triples
   Tobias Risthaus        : Range-separated hybrids, TD-DFT gradient, RPA, STAB
   Michael Roemelt        : Original ROCIS implementation
   Masaaki Saitow         : Open-shell DLPNO-CCSD energy and density
   Barbara Sandhoefer     : DKH picture change effects
   Avijit Sen             : IP-ROCIS
   Kantharuban Sivalingam : CASSCF convergence, NEVPT2, FIC-MRCI
   Bernardo de Souza      : ESD, SOC TD-DFT
   Georgi Stoychev        : AutoAux, RI-MP2 NMR
   Willem Van den Heuvel  : Paramagnetic NMR
   Boris Wezisla          : Elementary symmetry handling
   Frank Wennmohs         : Technical directorship


 We gratefully acknowledge several colleagues who have allowed us to
 interface, adapt or use parts of their codes:
   Stefan Grimme, W. Hujo, H. Kruse,             : VdW corrections, initial TS optimization,
                  C. Bannwarth                     DFT functionals, gCP, sTDA/sTD-DF
   Ed Valeev, F. Pavosevic, A. Kumar             : LibInt (2-el integral package), F12 methods
   Garnet Chan, S. Sharma, J. Yang, R. Olivares  : DMRG
   Ulf Ekstrom                                   : XCFun DFT Library
   Mihaly Kallay                                 : mrcc  (arbitrary order and MRCC methods)
   Andreas Klamt, Michael Diedenhofen            : otool_cosmo (COSMO solvation model)
   Jiri Pittner, Ondrej Demel                    : Mk-CCSD
   Frank Weinhold                                : gennbo (NPA and NBO analysis)
   Christopher J. Cramer and Donald G. Truhlar   : smd solvation model
   Lars Goerigk                                  : TD-DFT with DH, B97 family of functionals
   V. Asgeirsson, H. Jonsson                     : NEB implementation
   FAccTs GmbH                                   : IRC, NEB, NEB-TS, Multilevel, MM, QM/MM, CI optimization
   S Lehtola, MJT Oliveira, MAL Marques          : LibXC Library


 Your calculation uses the libint2 library for the computation of 2-el integrals
 For citations please refer to: http://libint.valeyev.net

 Your ORCA version has been built with support for libXC version: 4.2.3
 For citations please refer to: https://tddft.org/programs/libxc/

 This ORCA versions uses:
   CBLAS   interface :  Fast vector & matrix operations
   LAPACKE interface :  Fast linear algebra routines
   SCALAPACK package :  Parallel linear algebra routines


Your calculation utilizes the atom-pairwise dispersion correction
with the Becke-Johnson damping scheme (D3BJ)
Cite in your paper:
S.Grimme, S.Ehrlich, L.Goerigk, J Comput Chem, (2011), 32, 1456–1465 
S.Grimme, J.Antony, S.Ehrlich and H.Krieg, J.Chem.Phys., 132, (2010), 154104 
   

----- Orbital basis set information -----
Your calculation utilizes the basis: aug-cc-pVTZ 
    H, B-Ne : Obtained from the ccRepo (grant-hill.group.shef.ac.uk/ccrepo) Feb. 2017
              R. A. Kendall, T. H. Dunning, Jr., R. J. Harrison, J. Chem. Phys. 96, 6796 (1992)
         He : Obtained from the ccRepo (grant-hill.group.shef.ac.uk/ccrepo) Feb. 2017
              D. E. Woon, T. H. Dunning, Jr., J. Chem. Phys. 100, 2975 (1994)
  Li-Be, Na : Obtained from the ccRepo (grant-hill.group.shef.ac.uk/ccrepo) Feb. 2017
              B. P. Prascher, D. E. Woon, K. A. Peterson, T. H. Dunning, Jr., A. K. Wilson, Theor. Chem. Acc. 128, 69 (2011)
         Mg : Obtained from the Peterson Research Group Website (tyr0.chem.wsu.edu/~kipeters) Feb. 2017
              B. P. Prascher, D. E. Woon, K. A. Peterson, T. H. Dunning, Jr., A. K. Wilson, Theor. Chem. Acc. 128, 69 (2011)
      Al-Ar : Obtained from the ccRepo (grant-hill.group.shef.ac.uk/ccrepo) Feb. 2017
              D. E. Woon, T. H. Dunning, Jr., J. Chem. Phys. 98, 1358 (1993)
      Sc-Zn : Obtained from the ccRepo (grant-hill.group.shef.ac.uk/ccrepo) Feb. 2017
              N. B. Balabanov, K. A. Peterson, J. Chem. Phys. 123, 064107 (2005)
              N. B. Balabanov, K. A. Peterson, J. Chem. Phys. 125, 074110 (2006)
      Ga-Kr : Obtained from the ccRepo (grant-hill.group.shef.ac.uk/ccrepo) Feb. 2017
              A. K. Wilson, D. E. Woon, K. A. Peterson, T. H. Dunning, Jr., J. Chem. Phys. 110, 7667 (1999)
     Ag, Au : Obtained from the Peterson Research Group Website (tyr0.chem.wsu.edu/~kipeters) Feb. 2017
              K. A. Peterson, C. Puzzarini, Theor. Chem. Acc. 114, 283 (2005)

----- AuxJ basis set information -----
Your calculation utilizes the auxiliary basis: def2/J
   F. Weigend, Phys. Chem. Chem. Phys. 8, 1057 (2006).

================================================================================
                                        WARNINGS
                       Please study these warnings very carefully!
================================================================================


WARNING: your system is open-shell and RHF/RKS was chosen
  ===> : WILL SWITCH to UHF/UKS


WARNING: Geometry Optimization
  ===> : Switching off AutoStart
         For restart on a previous wavefunction, please use MOREAD

INFO   : the flag for use of LIBINT has been found!

================================================================================
                                       INPUT FILE
================================================================================
NAME = 42_CoS.in
|  1> #
|  2> # 42_CoS tpss/aug-cc-pvtz
|  3> #
|  4> ! tpss d3bj aug-cc-pvtz def2/j opt xyzfile
|  5> 
|  6> *xyz 0 4
|  7> Co 0.0 0.0 0.0
|  8> S 0.0 0.0 2.0
|  9> *
| 10> 
| 11> %pal
| 12> nprocs 24
| 13> end
| 14> 
| 15> 
| 16>                          ****END OF INPUT****
================================================================================

                       *****************************
                       * Geometry Optimization Run *
                       *****************************

Geometry optimization settings:
Update method            Update   .... BFGS
Choice of coordinates    CoordSys .... Z-matrix Internals
Initial Hessian          InHess   .... Almoef's Model

Convergence Tolerances:
Energy Change            TolE     ....  5.0000e-06 Eh
Max. Gradient            TolMAXG  ....  3.0000e-04 Eh/bohr
RMS Gradient             TolRMSG  ....  1.0000e-04 Eh/bohr
Max. Displacement        TolMAXD  ....  4.0000e-03 bohr
RMS Displacement         TolRMSD  ....  2.0000e-03 bohr
Strict Convergence                ....  False
------------------------------------------------------------------------------
                        ORCA OPTIMIZATION COORDINATE SETUP
------------------------------------------------------------------------------

The optimization will be done in new redundant internal coordinates
Making redundant internal coordinates   ...  (new redundants) done
Evaluating the initial hessian          ...  (Almloef) done
Evaluating the coordinates              ...  done
Calculating the B-matrix                .... done
Calculating the G-matrix                .... done
Diagonalizing the G-matrix              .... done
The first mode is                       ....    0
The number of degrees of freedom        ....    1

    -----------------------------------------------------------------
                    Redundant Internal Coordinates


    -----------------------------------------------------------------
         Definition                    Initial Value    Approx d2E/dq
    -----------------------------------------------------------------
      1. B(S   1,Co  0)                  2.0000         1.813072   
    -----------------------------------------------------------------

Number of atoms                         .... 2
Number of degrees of freedom            .... 1

         *************************************************************
         *                GEOMETRY OPTIMIZATION CYCLE   1            *
         *************************************************************
---------------------------------
CARTESIAN COORDINATES (ANGSTROEM)
---------------------------------
  Co     0.000000    0.000000    0.000000
  S      0.000000    0.000000    2.000000

----------------------------
CARTESIAN COORDINATES (A.U.)
----------------------------
  NO LB      ZA    FRAG     MASS         X           Y           Z
   0 Co   27.0000    0    58.930    0.000000    0.000000    0.000000
   1 S    16.0000    0    32.060    0.000000    0.000000    3.779452

--------------------------------
INTERNAL COORDINATES (ANGSTROEM)
--------------------------------
 Co     0   0   0     0.000000000000     0.00000000     0.00000000
 S      1   0   0     2.000000000000     0.00000000     0.00000000

---------------------------
INTERNAL COORDINATES (A.U.)
---------------------------
 Co     0   0   0     0.000000000000     0.00000000     0.00000000
 S      1   0   0     3.779452267843     0.00000000     0.00000000

---------------------
BASIS SET INFORMATION
---------------------
There are 2 groups of distinct atoms

 Group   1 Type Co  : 116s77p23d3f2g contracted to 8s7p5d3f2g pattern {19191919191911/151515151511/77711/111/11}
 Group   2 Type S   : 42s17p3d2f contracted to 6s5p3d2f pattern {131313111/77111/111/11}

Atom   0Co   basis set group =>   1
Atom   1S    basis set group =>   2
---------------------------------
AUXILIARY/J BASIS SET INFORMATION
---------------------------------
There are 2 groups of distinct atoms

 Group   1 Type Co  : 19s5p5d3f3g contracted to 8s5p5d2f3g pattern {121111111/11111/11111/21/111}
 Group   2 Type S   : 14s5p5d2f1g contracted to 8s4p3d1f1g pattern {71111111/2111/311/2/1}

Atom   0Co   basis set group =>   1
Atom   1S    basis set group =>   2


           ************************************************************
           *        Program running with 24 parallel MPI-processes    *
           *              working on a common directory               *
           ************************************************************
------------------------------------------------------------------------------
                           ORCA GTO INTEGRAL CALCULATION
                           -- RI-GTO INTEGRALS CHOSEN --
------------------------------------------------------------------------------

                         BASIS SET STATISTICS AND STARTUP INFO

Gaussian basis set:
 # of primitive gaussian shells          ...  285
 # of primitive gaussian functions       ...  623
 # of contracted shells                  ...   41
 # of contracted basis functions         ...  143
 Highest angular momentum                ...    4
 Maximum contraction depth               ...   19
Auxiliary gaussian basis set:
 # of primitive gaussian shells          ...   62
 # of primitive gaussian functions       ...  184
 # of contracted shells                  ...   40
 # of contracted aux-basis functions     ...  140
 Highest angular momentum                ...    4
 Maximum contraction depth               ...   12
Ratio of auxiliary to basis functions    ...  0.98
Integral package used                  ... LIBINT
 One Electron integrals                  ... done
 Ordering auxiliary basis shells         ... done
 Integral threshhold             Thresh  ...  2.500e-11
 Primitive cut-off               TCut    ...  2.500e-12
 Pre-screening matrix                    ... done
 Shell pair data                         ... 
 Ordering of the shell pairs             ... done (   0.000 sec) 861 of 861 pairs
 Determination of significant pairs      ... done (   0.000 sec)
 Creation of shell pair data             ... done (   0.001 sec)
 Storage of shell pair data              ... done (   0.021 sec)
 Shell pair data done in (   0.023 sec)
 Computing two index integrals           ... done
 Cholesky decomposition of the V-matrix  ... done


Timings:
 Total evaluation time                   ...   2.596 sec (  0.043 min)
 One electron matrix time                ...   0.044 sec (  0.001 min) =  1.7%
 Schwartz matrix evaluation time         ...   2.498 sec (  0.042 min) = 96.2%
 Two index repulsion integral time       ...   0.001 sec (  0.000 min) =  0.0%
 Cholesky decomposition of V             ...   0.002 sec (  0.000 min) =  0.1%
 Three index repulsion integral time     ...   0.000 sec (  0.000 min) =  0.0%



           ************************************************************
           *        Program running with 24 parallel MPI-processes    *
           *              working on a common directory               *
           ************************************************************
-------------------------------------------------------------------------------
                                 ORCA SCF
-------------------------------------------------------------------------------

------------
SCF SETTINGS
------------
Hamiltonian:
 Density Functional     Method          .... DFT(GTOs)
 Exchange Functional    Exchange        .... TPSS
 Correlation Functional Correlation     .... TPSS
 LDA part of GGA corr.  LDAOpt          .... PW91-LDA
 Gradients option       PostSCFGGA      .... off
   Density functional embedding theory  .... OFF
   NL short-range parameter             ....  5.000000
 RI-approximation to the Coulomb term is turned on
   Number of auxiliary basis functions  .... 140


General Settings:
 Integral files         IntName         .... 42_CoS
 Hartree-Fock type      HFTyp           .... UHF
 Total Charge           Charge          ....    0
 Multiplicity           Mult            ....    4
 Number of Electrons    NEL             ....   43
 Basis Dimension        Dim             ....  143
 Nuclear Repulsion      ENuc            ....    114.3022769928 Eh

Convergence Acceleration:
 DIIS                   CNVDIIS         .... on
   Start iteration      DIISMaxIt       ....    12
   Startup error        DIISStart       ....  0.200000
   # of expansion vecs  DIISMaxEq       ....     5
   Bias factor          DIISBfac        ....   1.050
   Max. coefficient     DIISMaxC        ....  10.000
 Newton-Raphson         CNVNR           .... off
 SOSCF                  CNVSOSCF        .... off
 Level Shifting         CNVShift        .... on
   Level shift para.    LevelShift      ....    0.2500
   Turn off err/grad.   ShiftErr        ....    0.0010
 Zerner damping         CNVZerner       .... off
 Static damping         CNVDamp         .... on
   Fraction old density DampFac         ....    0.7000
   Max. Damping (<1)    DampMax         ....    0.9800
   Min. Damping (>=0)   DampMin         ....    0.0000
   Turn off err/grad.   DampErr         ....    0.1000
 Fernandez-Rico         CNVRico         .... off

SCF Procedure:
 Maximum # iterations   MaxIter         ....   125
 SCF integral mode      SCFMode         .... Direct
   Integral package                     .... LIBINT
 Reset frequency        DirectResetFreq ....    20
 Integral Threshold     Thresh          ....  2.500e-11 Eh
 Primitive CutOff       TCut            ....  2.500e-12 Eh

Convergence Tolerance:
 Convergence Check Mode ConvCheckMode   .... Total+1el-Energy
 Convergence forced     ConvForced      .... 0
 Energy Change          TolE            ....  1.000e-08 Eh
 1-El. energy change                    ....  1.000e-05 Eh
 DIIS Error             TolErr          ....  5.000e-07


Diagonalization of the overlap matrix:
Smallest eigenvalue                        ... 8.690e-05
Time for diagonalization                   ...    0.005 sec
Threshold for overlap eigenvalues          ... 1.000e-08
Number of eigenvalues below threshold      ... 0
Time for construction of square roots      ...    0.002 sec
Total time needed                          ...    0.008 sec

-------------------
DFT GRID GENERATION
-------------------

General Integration Accuracy     IntAcc      ...  4.340
Radial Grid Type                 RadialGrid  ... Gauss-Chebyshev
Angular Grid (max. acc.)         AngularGrid ... Lebedev-110
Angular grid pruning method      GridPruning ... 3 (G Style)
Weight generation scheme         WeightScheme... Becke
Basis function cutoff            BFCut       ...    1.0000e-11
Integration weight cutoff        WCut        ...    1.0000e-14
Grids for H and He will be reduced by one unit

# of grid points (after initial pruning)     ...   4718 (   0.0 sec)
# of grid points (after weights+screening)   ...   4693 (   0.0 sec)
nearest neighbour list constructed           ...    0.0 sec
Grid point re-assignment to atoms done       ...    0.0 sec
Grid point division into batches done        ...    0.0 sec
Reduced shell lists constructed in    0.0 sec

Total number of grid points                  ...     4693
Total number of batches                      ...       75
Average number of points per batch           ...       62
Average number of grid points per atom       ...     2346
Average number of shells per batch           ...    24.00 (58.54%)
Average number of basis functions per batch  ...    72.00 (50.35%)
Average number of large shells per batch     ...    16.80 (70.00%)
Average number of large basis fcns per batch ...    48.00 (66.67%)
Maximum spatial batch extension              ...  18.98, 28.73, 16.15 au
Average spatial batch extension              ...   0.93,  1.29,  0.86 au

Time for grid setup =    0.264 sec

------------------------------
INITIAL GUESS: MODEL POTENTIAL
------------------------------
Loading Hartree-Fock densities                     ... done
Calculating cut-offs                               ... done
Setting up the integral package                    ... done
Initializing the effective Hamiltonian             ... done
Starting the Coulomb interaction                   ... done (   0.0 sec)
Reading the grid                                   ... done
Mapping shells                                     ... done
Starting the XC term evaluation                    ... done (   0.0 sec)
  promolecular density results
     # of electrons  =     42.999990852
     EX              =    -82.623549682
     EC              =     -1.825090747
     EX+EC           =    -84.448640429
Transforming the Hamiltonian                       ... done (   0.0 sec)
Diagonalizing the Hamiltonian                      ... done (   0.0 sec)
Back transforming the eigenvectors                 ... done (   0.0 sec)
Now organizing SCF variables                       ... done
                      ------------------
                      INITIAL GUESS DONE (   0.4 sec)
                      ------------------
--------------
SCF ITERATIONS
--------------
ITER       Energy         Delta-E        Max-DP      RMS-DP      [F,P]     Damp
               ***  Starting incremental Fock matrix formation  ***
  0  -1780.9369614512   0.000000000000 0.09273329  0.00143860  0.3404770 0.7000
  1  -1780.9701054935  -0.033144042339 0.03138492  0.00073464  0.1175436 0.7000
                               ***Turning on DIIS***
  2  -1781.0012435805  -0.031138087006 0.07776128  0.00144631  0.0429360 0.0000
  3  -1780.9759874486   0.025256131899 0.01192260  0.00019811  0.2595360 0.7000
  4  -1780.9991012690  -0.023113820400 0.01791617  0.00021724  0.2084152 0.7000
  5  -1781.0213268244  -0.022225555375 0.02185233  0.00022689  0.1534146 0.7000
  6  -1781.0385517407  -0.017224916262 0.02222236  0.00021554  0.1011133 0.7000
  7  -1781.0488869240  -0.010335183325 0.06662895  0.00063232  0.0581491 0.0000
  8  -1781.0536712586  -0.004784334615 0.00683499  0.00012676  0.0440566 0.0000
  9  -1781.0560762881  -0.002405029519 0.00408340  0.00006973  0.0250302 0.0000
 10  -1781.0568130182  -0.000736730103 0.00271201  0.00004807  0.0122468 0.0000
 11  -1781.0570690744  -0.000256056220 0.00157975  0.00002349  0.0063007 0.0000
 12  -1781.0571203961  -0.000051321708 0.00107041  0.00001818  0.0029604 0.0000
 13  -1781.0571400556  -0.000019659430 0.00053474  0.00000868  0.0012206 0.0000
 14  -1781.0571426758  -0.000002620262 0.94240975  0.00576621  0.0003856 0.0000
 15  -1781.0550820970   0.002060578836 0.00000230  0.00000003  0.1850552 0.7000
 16  -1781.0550844189  -0.000002321880 0.00000523  0.00000006  0.1850472 0.7000
 17  -1781.0550875903  -0.000003171386 0.00010546  0.00000115  0.1850355 0.7000
 18  -1781.0551297259  -0.000042135634 0.00015097  0.00000148  0.1849316 0.7000
 19  -1781.0551871046  -0.000057378657 0.06754184  0.00070839  0.1847840 0.7000
               *** Restarting incremental Fock matrix formation ***
                                   *** Resetting DIIS ***
 20  -1781.0655620738  -0.010374969275 0.06140200  0.00110473  0.0763273 0.0000
 21  -1781.0802098966  -0.014647822719 0.08702815  0.00091292  0.0301611 0.0000
 22  -1781.0677625964   0.012447300119 0.00264622  0.00006958  0.1256732 0.7000
 23  -1781.0703077677  -0.002545171262 0.00304118  0.00006772  0.1100122 0.7000
 24  -1781.0725119256  -0.002204157921 0.00952209  0.00018771  0.0956634 0.0000
 25  -1781.0779095782  -0.005397652551 0.00332018  0.00007948  0.0574754 0.0000
 26  -1781.0796832657  -0.001773687501 0.04045526  0.00045108  0.0521606 0.0000
 27  -1781.0832128192  -0.003529553538 0.00505530  0.00012355  0.0326292 0.0000
 28  -1781.0840159227  -0.000803103527 0.00340431  0.00005502  0.0171829 0.0000
 29  -1781.0843286331  -0.000312710349 0.00163728  0.00002784  0.0109085 0.0000
 30  -1781.0844554694  -0.000126836283 0.00182212  0.00002290  0.0054156 0.0000
 31  -1781.0845066781  -0.000051208748 0.00121806  0.00001372  0.0026052 0.0000
 32  -1781.0845182683  -0.000011590224 0.00273266  0.00002673  0.0004299 0.0000
 33  -1781.0845120775   0.000006190797 0.00019319  0.00000299  0.0019739 0.0000
 34  -1781.0845148451  -0.000002767603 0.00017817  0.00000185  0.0016864 0.0000
 35  -1781.0845165060  -0.000001660867 0.00014742  0.00000135  0.0014301 0.0000
 36  -1781.0845175203  -0.000001014295 0.00013988  0.00000308  0.0012317 0.0000
 37  -1781.0845183571  -0.000000836821 0.00253020  0.00002358  0.0008595 0.0000
 38  -1781.0845107483   0.000007608852 0.00041034  0.00000459  0.0020106 0.0000
 39  -1781.0845162366  -0.000005488308 0.00034446  0.00000312  0.0014225 0.0000
               *** Restarting incremental Fock matrix formation ***
                                   *** Resetting DIIS ***
 40  -1781.0845190570  -0.000002820399 0.00924832  0.00007479  0.0009825 0.0000
 41  -1781.0843032096   0.000215847390 0.00189960  0.00001899  0.0124672 0.0000
 42  -1781.0844231353  -0.000119925733 0.00151259  0.00001280  0.0074588 0.0000
 43  -1781.0844708269  -0.000047691611 0.00116446  0.00000947  0.0050766 0.0000
 44  -1781.0844937143  -0.000022887383 0.00088995  0.00000710  0.0035841 0.0000
 45  -1781.0845053939  -0.000011679565 0.00120991  0.00001132  0.0025549 0.0000
 46  -1781.0845162326  -0.000010838670 0.00058866  0.00000721  0.0012110 0.0000
 47  -1781.0845180969  -0.000001864376 0.00189567  0.00001541  0.0003367 0.0000
 48  -1781.0845134742   0.000004622778 0.00007783  0.00000099  0.0014629 0.0000
 49  -1781.0845142812  -0.000000807027 0.00008377  0.00000083  0.0013159 0.0000
 50  -1781.0845149690  -0.000000687855 0.00006989  0.00000061  0.0011800 0.0000
 51  -1781.0845154171  -0.000000448068 0.00013830  0.00000293  0.0010833 0.0000
 52  -1781.0845156429  -0.000000225825 0.00352973  0.00003047  0.0007042 0.0000
 53  -1781.0844911338   0.000024509096 0.00066668  0.00000685  0.0035844 0.0000
 54  -1781.0845044302  -0.000013296377 0.00054118  0.00000480  0.0024431 0.0000
 55  -1781.0845103324  -0.000005902239 0.00042081  0.00000348  0.0016920 0.0000
 56  -1781.0845131217  -0.000002789298 0.00032748  0.00000281  0.0011453 0.0000
 57  -1781.0845145463  -0.000001424595 0.00186007  0.00001631  0.0006646 0.0000
 58  -1781.0845112677   0.000003278598 0.00061322  0.00000615  0.0009913 0.0000
 59  -1781.0845146107  -0.000003342971 0.00022655  0.00000189  0.0004535 0.0000
               *** Restarting incremental Fock matrix formation ***
                                   *** Resetting DIIS ***
 60  -1781.0845214625  -0.000006851825 0.00109039  0.00001006  0.0001112 0.0000
 61  -1781.0845194212   0.000002041344 0.00021670  0.00000214  0.0013325 0.0000
 62  -1781.0845210124  -0.000001591235 0.00067962  0.00000541  0.0007843 0.0000
 63  -1781.0845218235  -0.000000811104 0.00006391  0.00000097  0.0000898 0.0000
 64  -1781.0845217611   0.000000062450 0.00001567  0.00000023  0.0000453 0.0000
 65  -1781.0845218180  -0.000000056946 0.00000544  0.00000007  0.0000055 0.0000
 66  -1781.0845218591  -0.000000041110 0.00000120  0.00000002  0.0000024 0.0000
 67  -1781.0845218311   0.000000028052 0.00000093  0.00000002  0.0000011 0.0000
                            ***DIIS convergence achieved***

               *****************************************************
               *                     SUCCESS                       *
               *           SCF CONVERGED AFTER  68 CYCLES          *
               *****************************************************

Setting up the final grid:

General Integration Accuracy     IntAcc      ...  4.670
Radial Grid Type                 RadialGrid  ... Gauss-Chebyshev
Angular Grid (max. acc.)         AngularGrid ... Lebedev-302
Angular grid pruning method      GridPruning ... 3 (G Style)
Weight generation scheme         WeightScheme... Becke
Basis function cutoff            BFCut       ...    1.0000e-11
Integration weight cutoff        WCut        ...    1.0000e-14
Grids for H and He will be reduced by one unit

# of grid points (after initial pruning)     ...  16486 (   0.0 sec)
# of grid points (after weights+screening)   ...  16457 (   0.0 sec)
nearest neighbour list constructed           ...    0.0 sec
Grid point re-assignment to atoms done       ...    0.0 sec
Grid point division into batches done        ...    0.1 sec
Reduced shell lists constructed in    0.1 sec

Total number of grid points                  ...    16457
Total number of batches                      ...      258
Average number of points per batch           ...       63
Average number of grid points per atom       ...     8228
Average number of shells per batch           ...    16.67 (40.65%)
Average number of basis functions per batch  ...    41.50 (29.02%)
Average number of large shells per batch     ...     8.67 (52.00%)
Average number of large basis fcns per batch ...    20.50 (49.40%)
Maximum spatial batch extension              ...  24.49, 24.19, 18.13 au
Average spatial batch extension              ...   0.84,  0.83,  0.65 au

Final grid set up in    0.1 sec
Final integration                            ... done (   0.0 sec)
Change in XC energy                          ...    -0.002520316
Integrated number of electrons               ...    43.000021847
Previous integrated no of electrons          ...    42.999954255

----------------
TOTAL SCF ENERGY
----------------

Total Energy       :        -1781.08704214 Eh          -48465.84237 eV

Components:
Nuclear Repulsion  :          114.30227699 Eh            3110.32308 eV
Electronic Energy  :        -1895.38931913 Eh          -51576.16546 eV
One Electron Energy:        -2693.89803034 Eh          -73304.69214 eV
Two Electron Energy:          798.50871121 Eh           21728.52669 eV

Virial components:
Potential Energy   :        -3558.95204681 Eh          -96844.00865 eV
Kinetic Energy     :         1777.86500466 Eh           48378.16628 eV
Virial Ratio       :            2.00181231


DFT components:
N(Alpha)           :       23.000010930782 electrons
N(Beta)            :       20.000010916037 electrons
N(Total)           :       43.000021846819 electrons
E(X)               :      -83.221739817893 Eh       
E(C)               :       -1.835276320313 Eh       
E(XC)              :      -85.057016138206 Eh       
DFET-embed. en.    :        0.000000000000 Eh       

---------------
SCF CONVERGENCE
---------------

  Last Energy change         ...    5.1864e-09  Tolerance :   1.0000e-08
  Last MAX-Density change    ...    3.2973e-06  Tolerance :   1.0000e-07
  Last RMS-Density change    ...    4.0365e-08  Tolerance :   5.0000e-09
  Last DIIS Error            ...    2.5802e-07  Tolerance :   5.0000e-07

             **** THE GBW FILE WAS UPDATED (42_CoS.gbw) ****
             **** DENSITY FILE WAS UPDATED (42_CoS.scfp) ****
             **** ENERGY FILE WAS UPDATED (42_CoS.en.tmp) ****
----------------------
UHF SPIN CONTAMINATION
----------------------

Warning: in a DFT calculation there is little theoretical justification to 
         calculate <S**2> as in Hartree-Fock theory. We will do it anyways
         but you should keep in mind that the values have only limited relevance

Expectation value of <S**2>     :     3.763501
Ideal value S*(S+1) for S=1.5   :     3.750000
Deviation                       :     0.013501

             **** THE GBW FILE WAS UPDATED (42_CoS.gbw) ****
             **** DENSITY FILE WAS UPDATED (42_CoS.scfp) ****
----------------
ORBITAL ENERGIES
----------------
                 SPIN UP ORBITALS
  NO   OCC          E(Eh)            E(eV) 
   0   1.0000    -276.695491     -7529.2671 
   1   1.0000     -88.373387     -2404.7621 
   2   1.0000     -32.484373      -883.9447 
   3   1.0000     -28.141807      -765.7775 
   4   1.0000     -28.141807      -765.7775 
   5   1.0000     -28.133536      -765.5524 
   6   1.0000      -7.726322      -210.2439 
   7   1.0000      -5.705715      -155.2604 
   8   1.0000      -5.705715      -155.2604 
   9   1.0000      -5.703398      -155.1974 
  10   1.0000      -3.667837       -99.8069 
  11   1.0000      -2.373403       -64.5836 
  12   1.0000      -2.373403       -64.5836 
  13   1.0000      -2.363360       -64.3103 
  14   1.0000      -0.613057       -16.6821 
  15   1.0000      -0.305107        -8.3024 
  16   1.0000      -0.304227        -8.2784 
  17   1.0000      -0.304227        -8.2784 
  18   1.0000      -0.298589        -8.1250 
  19   1.0000      -0.256813        -6.9882 
  20   1.0000      -0.223029        -6.0689 
  21   1.0000      -0.213035        -5.7970 
  22   1.0000      -0.213035        -5.7970 
  23   0.0000      -0.130720        -3.5571 
  24   0.0000      -0.026104        -0.7103 
  25   0.0000      -0.026104        -0.7103 
  26   0.0000       0.004651         0.1265 
  27   0.0000       0.006216         0.1691 
  28   0.0000       0.030316         0.8249 
  29   0.0000       0.030316         0.8249 
  30   0.0000       0.055269         1.5039 
  31   0.0000       0.060212         1.6385 
  32   0.0000       0.060794         1.6543 
  33   0.0000       0.074148         2.0177 
  34   0.0000       0.076177         2.0729 
  35   0.0000       0.076177         2.0729 
  36   0.0000       0.095635         2.6024 
  37   0.0000       0.095635         2.6024 
  38   0.0000       0.100673         2.7395 
  39   0.0000       0.120149         3.2694 
  40   0.0000       0.178999         4.8708 
  41   0.0000       0.178999         4.8708 
  42   0.0000       0.192953         5.2505 
  43   0.0000       0.193280         5.2594 
  44   0.0000       0.211499         5.7552 
  45   0.0000       0.227370         6.1870 
  46   0.0000       0.265295         7.2190 
  47   0.0000       0.265295         7.2190 
  48   0.0000       0.295201         8.0328 
  49   0.0000       0.296025         8.0552 
  50   0.0000       0.308585         8.3970 
  51   0.0000       0.351656         9.5691 
  52   0.0000       0.351656         9.5691 
  53   0.0000       0.471165        12.8211 
  54   0.0000       0.478064        13.0088 
  55   0.0000       0.478064        13.0088 
  56   0.0000       0.501184        13.6379 
  57   0.0000       0.562681        15.3113 
  58   0.0000       0.562792        15.3144 
  59   0.0000       0.601125        16.3574 
  60   0.0000       0.601125        16.3574 
  61   0.0000       0.604913        16.4605 
  62   0.0000       0.687056        18.6957 
  63   0.0000       0.687056        18.6957 
  64   0.0000       0.691393        18.8138 
  65   0.0000       0.724625        19.7180 
  66   0.0000       0.725086        19.7306 
  67   0.0000       0.784776        21.3549 
  68   0.0000       0.784776        21.3549 
  69   0.0000       0.851476        23.1698 
  70   0.0000       0.916879        24.9495 
  71   0.0000       0.916879        24.9495 
  72   0.0000       0.991177        26.9713 
  73   0.0000       0.991177        26.9713 
  74   0.0000       1.050961        28.5981 
  75   0.0000       1.143157        31.1069 
  76   0.0000       1.146973        31.2107 
  77   0.0000       1.188576        32.3428 
  78   0.0000       1.188576        32.3428 
  79   0.0000       1.219306        33.1790 
  80   0.0000       1.226459        33.3737 
  81   0.0000       1.230563        33.4853 
  82   0.0000       1.347125        36.6571 
  83   0.0000       1.519804        41.3560 
  84   0.0000       1.519804        41.3560 
  85   0.0000       1.752534        47.6889 
  86   0.0000       1.753545        47.7164 
  87   0.0000       1.863617        50.7116 
  88   0.0000       1.863617        50.7116 
  89   0.0000       1.869858        50.8814 
  90   0.0000       2.052160        55.8421 
  91   0.0000       2.059180        56.0331 
  92   0.0000       2.059180        56.0331 
  93   0.0000       2.071498        56.3683 
  94   0.0000       2.071498        56.3683 
  95   0.0000       2.088015        56.8178 
  96   0.0000       2.090530        56.8862 
  97   0.0000       2.153163        58.5905 
  98   0.0000       2.286728        62.2250 
  99   0.0000       2.286728        62.2250 
 100   0.0000       2.868007        78.0424 
 101   0.0000       3.069219        83.5177 
 102   0.0000       3.069219        83.5177 
 103   0.0000       3.128159        85.1215 
 104   0.0000       3.144042        85.5537 
 105   0.0000       3.160442        86.0000 
 106   0.0000       3.247927        88.3806 
 107   0.0000       3.247927        88.3806 
 108   0.0000       3.295757        89.6821 
 109   0.0000       3.295757        89.6821 
 110   0.0000       3.391822        92.2962 
 111   0.0000       3.857448       104.9665 
 112   0.0000       3.946777       107.3973 
 113   0.0000       3.946777       107.3973 
 114   0.0000       3.951849       107.5353 
 115   0.0000       3.955912       107.6458 
 116   0.0000       3.988380       108.5293 
 117   0.0000       3.996900       108.7612 
 118   0.0000       4.157130       113.1213 
 119   0.0000       4.209851       114.5559 
 120   0.0000       4.209851       114.5559 
 121   0.0000       4.966627       135.1488 
 122   0.0000       4.998912       136.0273 
 123   0.0000       5.291711       143.9948 
 124   0.0000       5.298921       144.1910 
 125   0.0000       5.298921       144.1910 
 126   0.0000       6.473977       176.1659 
 127   0.0000      10.235148       278.5125 
 128   0.0000      10.235148       278.5125 
 129   0.0000      10.247674       278.8534 
 130   0.0000      10.282648       279.8051 
 131   0.0000      10.347201       281.5617 
 132   0.0000      10.347201       281.5617 
 133   0.0000      10.403524       283.0943 
 134   0.0000      11.385281       309.8093 
 135   0.0000      11.385281       309.8093 
 136   0.0000      11.394826       310.0690 
 137   0.0000      11.397275       310.1356 
 138   0.0000      11.402712       310.2836 
 139   0.0000      11.425300       310.8982 
 140   0.0000      11.537454       313.9501 
 141   0.0000      11.537454       313.9501 
 142   0.0000      11.643131       316.8257 

                 SPIN DOWN ORBITALS
  NO   OCC          E(Eh)            E(eV) 
   0   1.0000    -276.694863     -7529.2500 
   1   1.0000     -88.370058     -2404.6715 
   2   1.0000     -32.445283      -882.8810 
   3   1.0000     -28.108422      -764.8690 
   4   1.0000     -28.108422      -764.8690 
   5   1.0000     -28.105046      -764.7772 
   6   1.0000      -7.723321      -210.1623 
   7   1.0000      -5.702243      -155.1659 
   8   1.0000      -5.699591      -155.0938 
   9   1.0000      -5.699591      -155.0938 
  10   1.0000      -3.572295       -97.2071 
  11   1.0000      -2.279209       -62.0204 
  12   1.0000      -2.272321       -61.8330 
  13   1.0000      -2.272321       -61.8330 
  14   1.0000      -0.589360       -16.0373 
  15   1.0000      -0.284203        -7.7336 
  16   1.0000      -0.233551        -6.3552 
  17   1.0000      -0.233551        -6.3552 
  18   1.0000      -0.227909        -6.2017 
  19   1.0000      -0.194707        -5.2982 
  20   0.0000      -0.155759        -4.2384 
  21   0.0000      -0.147209        -4.0058 
  22   0.0000      -0.147209        -4.0058 
  23   0.0000      -0.107985        -2.9384 
  24   0.0000      -0.014204        -0.3865 
  25   0.0000      -0.014204        -0.3865 
  26   0.0000       0.008966         0.2440 
  27   0.0000       0.010305         0.2804 
  28   0.0000       0.035504         0.9661 
  29   0.0000       0.035504         0.9661 
  30   0.0000       0.058202         1.5838 
  31   0.0000       0.063682         1.7329 
  32   0.0000       0.065542         1.7835 
  33   0.0000       0.078454         2.1348 
  34   0.0000       0.082198         2.2367 
  35   0.0000       0.082198         2.2367 
  36   0.0000       0.100854         2.7444 
  37   0.0000       0.100854         2.7444 
  38   0.0000       0.108442         2.9509 
  39   0.0000       0.125554         3.4165 
  40   0.0000       0.188846         5.1388 
  41   0.0000       0.188846         5.1388 
  42   0.0000       0.208683         5.6786 
  43   0.0000       0.209858         5.7105 
  44   0.0000       0.218565         5.9475 
  45   0.0000       0.237455         6.4615 
  46   0.0000       0.281914         7.6713 
  47   0.0000       0.281914         7.6713 
  48   0.0000       0.302478         8.2309 
  49   0.0000       0.316133         8.6024 
  50   0.0000       0.316545         8.6136 
  51   0.0000       0.363641         9.8952 
  52   0.0000       0.363641         9.8952 
  53   0.0000       0.481241        13.0952 
  54   0.0000       0.493881        13.4392 
  55   0.0000       0.493881        13.4392 
  56   0.0000       0.515679        14.0323 
  57   0.0000       0.589114        16.0306 
  58   0.0000       0.589454        16.0398 
  59   0.0000       0.611226        16.6323 
  60   0.0000       0.611226        16.6323 
  61   0.0000       0.624100        16.9826 
  62   0.0000       0.702000        19.1024 
  63   0.0000       0.705876        19.2079 
  64   0.0000       0.705876        19.2079 
  65   0.0000       0.736755        20.0481 
  66   0.0000       0.739737        20.1293 
  67   0.0000       0.810592        22.0573 
  68   0.0000       0.810592        22.0573 
  69   0.0000       0.869003        23.6468 
  70   0.0000       0.937532        25.5115 
  71   0.0000       0.937532        25.5115 
  72   0.0000       1.013494        27.5786 
  73   0.0000       1.013494        27.5786 
  74   0.0000       1.067256        29.0415 
  75   0.0000       1.175409        31.9845 
  76   0.0000       1.199607        32.6430 
  77   0.0000       1.227639        33.4058 
  78   0.0000       1.227639        33.4058 
  79   0.0000       1.240213        33.7479 
  80   0.0000       1.247006        33.9328 
  81   0.0000       1.274341        34.6766 
  82   0.0000       1.364879        37.1402 
  83   0.0000       1.550129        42.1811 
  84   0.0000       1.550129        42.1811 
  85   0.0000       1.781169        48.4681 
  86   0.0000       1.782392        48.5014 
  87   0.0000       1.882815        51.2340 
  88   0.0000       1.882815        51.2340 
  89   0.0000       1.891267        51.4640 
  90   0.0000       2.065016        56.1919 
  91   0.0000       2.076811        56.5129 
  92   0.0000       2.076811        56.5129 
  93   0.0000       2.104346        57.2622 
  94   0.0000       2.104346        57.2622 
  95   0.0000       2.109620        57.4057 
  96   0.0000       2.111387        57.4537 
  97   0.0000       2.165304        58.9209 
  98   0.0000       2.310528        62.8727 
  99   0.0000       2.310528        62.8727 
 100   0.0000       2.903802        79.0165 
 101   0.0000       3.124689        85.0271 
 102   0.0000       3.124689        85.0271 
 103   0.0000       3.193138        86.8897 
 104   0.0000       3.221754        87.6684 
 105   0.0000       3.226724        87.8036 
 106   0.0000       3.299025        89.7710 
 107   0.0000       3.299025        89.7710 
 108   0.0000       3.362755        91.5052 
 109   0.0000       3.362755        91.5052 
 110   0.0000       3.424161        93.1762 
 111   0.0000       3.903806       106.2280 
 112   0.0000       3.993474       108.6680 
 113   0.0000       4.000400       108.8564 
 114   0.0000       4.002660       108.9179 
 115   0.0000       4.002660       108.9179 
 116   0.0000       4.030325       109.6707 
 117   0.0000       4.053001       110.2878 
 118   0.0000       4.189756       114.0091 
 119   0.0000       4.248517       115.6080 
 120   0.0000       4.248517       115.6080 
 121   0.0000       5.042147       137.2038 
 122   0.0000       5.080634       138.2511 
 123   0.0000       5.307028       144.4116 
 124   0.0000       5.385135       146.5370 
 125   0.0000       5.385135       146.5370 
 126   0.0000       6.525626       177.5713 
 127   0.0000      10.355102       281.7766 
 128   0.0000      10.355102       281.7766 
 129   0.0000      10.393925       282.8331 
 130   0.0000      10.422152       283.6012 
 131   0.0000      10.455588       284.5110 
 132   0.0000      10.455588       284.5110 
 133   0.0000      10.492601       285.5182 
 134   0.0000      11.490686       312.6775 
 135   0.0000      11.490977       312.6854 
 136   0.0000      11.490977       312.6854 
 137   0.0000      11.491008       312.6862 
 138   0.0000      11.505257       313.0740 
 139   0.0000      11.512210       313.2632 
 140   0.0000      11.618167       316.1464 
 141   0.0000      11.618167       316.1464 
 142   0.0000      11.717885       318.8599 

                    ********************************
                    * MULLIKEN POPULATION ANALYSIS *
                    ********************************

--------------------------------------------
MULLIKEN ATOMIC CHARGES AND SPIN POPULATIONS
--------------------------------------------
   0 Co:    0.286239    2.274784
   1 S :   -0.286239    0.725216
Sum of atomic charges         :   -0.0000000
Sum of atomic spin populations:    3.0000000

-----------------------------------------------------
MULLIKEN REDUCED ORBITAL CHARGES AND SPIN POPULATIONS
-----------------------------------------------------
CHARGE
  0 Cos       :     6.831386  s :     6.831386
      pz      :     4.071526  p :    12.221263
      px      :     4.074869
      py      :     4.074869
      dz2     :     1.819837  d :     7.649096
      dxz     :     1.416439
      dyz     :     1.416439
      dx2y2   :     0.999013
      dxy     :     1.997369
      f0      :     0.002768  f :     0.011427
      f+1     :     0.004241
      f-1     :     0.004241
      f+2     :     0.000044
      f-2     :     0.000060
      f+3     :     0.000036
      f-3     :     0.000036
      g0      :     0.000211  g :     0.000588
      g+1     :     0.000158
      g-1     :     0.000158
      g+2     :     0.000002
      g-2     :     0.000009
      g+3     :     0.000004
      g-3     :     0.000004
      g+4     :     0.000042
      g-4     :     0.000000
  1 S s       :     5.958220  s :     5.958220
      pz      :     3.313409  p :    10.285709
      px      :     3.486150
      py      :     3.486150
      dz2     :     0.002728  d :     0.036721
      dxz     :     0.015917
      dyz     :     0.015917
      dx2y2   :     0.000547
      dxy     :     0.001613
      f0      :    -0.000127  f :     0.005589
      f+1     :     0.002186
      f-1     :     0.002186
      f+2     :     0.000394
      f-2     :     0.000950
      f+3     :     0.000000
      f-3     :     0.000000

SPIN
  0 Cos       :     0.072879  s :     0.072879
      pz      :     0.000455  p :     0.050184
      px      :     0.024865
      py      :     0.024865
      dz2     :     0.024770  d :     2.149962
      dxz     :     0.563077
      dyz     :     0.563077
      dx2y2   :     0.999013
      dxy     :     0.000025
      f0      :     0.000364  f :     0.001934
      f+1     :     0.000762
      f-1     :     0.000762
      f+2     :     0.000044
      f-2     :     0.000037
      f+3     :    -0.000018
      f-3     :    -0.000018
      g0      :    -0.000074  g :    -0.000175
      g+1     :    -0.000040
      g-1     :    -0.000040
      g+2     :     0.000002
      g-2     :     0.000005
      g+3     :    -0.000001
      g-3     :    -0.000001
      g+4     :    -0.000026
      g-4     :    -0.000000
  1 S s       :    -0.019598  s :    -0.019598
      pz      :    -0.076373  p :     0.754582
      px      :     0.415478
      py      :     0.415478
      dz2     :    -0.002434  d :    -0.007754
      dxz     :    -0.002887
      dyz     :    -0.002887
      dx2y2   :     0.000547
      dxy     :    -0.000092
      f0      :     0.000036  f :    -0.002014
      f+1     :    -0.001235
      f-1     :    -0.001235
      f+2     :     0.000394
      f-2     :     0.000026
      f+3     :    -0.000000
      f-3     :    -0.000000


                     *******************************
                     * LOEWDIN POPULATION ANALYSIS *
                     *******************************

-------------------------------------------
LOEWDIN ATOMIC CHARGES AND SPIN POPULATIONS
-------------------------------------------
   0 Co:    0.039623    2.323574
   1 S :   -0.039623    0.676426

----------------------------------------------------
LOEWDIN REDUCED ORBITAL CHARGES AND SPIN POPULATIONS
----------------------------------------------------
CHARGE
  0 Cos       :     6.608616  s :     6.608616
      pz      :     4.228015  p :    12.424968
      px      :     4.098477
      py      :     4.098477
      dz2     :     1.937019  d :     7.833817
      dxz     :     1.461189
      dyz     :     1.461189
      dx2y2   :     0.992645
      dxy     :     1.981775
      f0      :     0.036028  f :     0.090745
      f+1     :     0.027052
      f-1     :     0.027052
      f+2     :     0.000200
      f-2     :     0.000341
      f+3     :     0.000036
      f-3     :     0.000036
      g0      :     0.000989  g :     0.002231
      g+1     :     0.000590
      g-1     :     0.000590
      g+2     :     0.000000
      g-2     :     0.000010
      g+3     :     0.000004
      g-3     :     0.000004
      g+4     :     0.000042
      g-4     :     0.000000
  1 S s       :     5.497252  s :     5.497252
      pz      :     3.470080  p :    10.125659
      px      :     3.327790
      py      :     3.327790
      dz2     :     0.134502  d :     0.233974
      dxz     :     0.045574
      dyz     :     0.045574
      dx2y2   :     0.002210
      dxy     :     0.006114
      f0      :     0.087458  f :     0.182738
      f+1     :     0.039288
      f-1     :     0.039288
      f+2     :     0.004945
      f-2     :     0.011760
      f+3     :     0.000000
      f-3     :     0.000000

SPIN
  0 Cos       :     0.028672  s :     0.028672
      pz      :    -0.008892  p :     0.124365
      px      :     0.066629
      py      :     0.066629
      dz2     :     0.021061  d :     2.149103
      dxz     :     0.567249
      dyz     :     0.567249
      dx2y2   :     0.992645
      dxy     :     0.000899
      f0      :     0.000226  f :     0.021257
      f+1     :     0.010369
      f-1     :     0.010369
      f+2     :     0.000200
      f-2     :     0.000128
      f+3     :    -0.000018
      f-3     :    -0.000018
      g0      :    -0.000096  g :     0.000177
      g+1     :     0.000153
      g-1     :     0.000153
      g+2     :     0.000000
      g-2     :    -0.000005
      g+3     :    -0.000001
      g-3     :    -0.000001
      g+4     :    -0.000026
      g-4     :    -0.000000
  1 S s       :     0.002044  s :     0.002044
      pz      :    -0.043324  p :     0.639598
      px      :     0.341461
      py      :     0.341461
      dz2     :     0.000939  d :     0.017878
      dxz     :     0.007599
      dyz     :     0.007599
      dx2y2   :     0.002210
      dxy     :    -0.000468
      f0      :    -0.000604  f :     0.016906
      f+1     :     0.006560
      f-1     :     0.006560
      f+2     :     0.004945
      f-2     :    -0.000554
      f+3     :    -0.000000
      f-3     :    -0.000000


                      *****************************
                      * MAYER POPULATION ANALYSIS *
                      *****************************

  NA   - Mulliken gross atomic population
  ZA   - Total nuclear charge
  QA   - Mulliken gross atomic charge
  VA   - Mayer's total valence
  BVA  - Mayer's bonded valence
  FA   - Mayer's free valence

  ATOM       NA         ZA         QA         VA         BVA        FA
  0 Co    26.7138    27.0000     0.2862     4.1404     2.3497     1.7908
  1 S     16.2862    16.0000    -0.2862     2.7127     2.3497     0.3630

  Mayer bond orders larger than 0.100000
B(  0-Co,  1-S ) :   2.3497 

-------
TIMINGS
-------

Total SCF time: 0 days 0 hours 0 min 11 sec 

Total time                  ....      11.239 sec
Sum of individual times     ....      10.989 sec  ( 97.8%)

Fock matrix formation       ....       9.988 sec  ( 88.9%)
  Split-RI-J                ....       8.391 sec  ( 84.0% of F)
  XC integration            ....       1.164 sec  ( 11.7% of F)
    Basis function eval.    ....       0.131 sec  ( 11.2% of XC)
    Density eval.           ....       0.153 sec  ( 13.1% of XC)
    XC-Functional eval.     ....       0.036 sec  (  3.1% of XC)
    XC-Potential eval.      ....       0.449 sec  ( 38.6% of XC)
Diagonalization             ....       0.346 sec  (  3.1%)
Density matrix formation    ....       0.043 sec  (  0.4%)
Population analysis         ....       0.007 sec  (  0.1%)
Initial guess               ....       0.103 sec  (  0.9%)
Orbital Transformation      ....       0.000 sec  (  0.0%)
Orbital Orthonormalization  ....       0.000 sec  (  0.0%)
DIIS solution               ....       0.122 sec  (  1.1%)
Grid generation             ....       0.380 sec  (  3.4%)


-------------------------------------------------------------------------------
                          DFT DISPERSION CORRECTION                            
                                                                               
                              DFTD3 V3.1  Rev 1                                
                          USING Becke-Johnson damping                          
-------------------------------------------------------------------------------
The TPSS functional is recognized
Active option DFTDOPT                   ...         4   

molecular C6(AA) [au] = 683.256307 


            DFT-D V3
 parameters
 s6 scaling factor         :     1.0000 
 a1 scaling factor         :     0.4535 
 s8 scaling factor         :     1.9435 
 a2 scaling factor         :     4.4752 
 ad hoc parameters k1-k3   :    16.0000     1.3333    -4.0000 

 Edisp/kcal,au: -1.036402069549  -0.001651611652 
 E6   /kcal   :  -0.353029358 
 E8   /kcal   :  -0.683372711 
 % E8         :  65.937026885 

-------------------------   ----------------
Dispersion correction           -0.001651612
-------------------------   ----------------


-------------------------   --------------------
FINAL SINGLE POINT ENERGY     -1781.088693753637
-------------------------   --------------------



           ************************************************************
           *        Program running with 24 parallel MPI-processes    *
           *              working on a common directory               *
           ************************************************************
------------------------------------------------------------------------------
                         ORCA SCF GRADIENT CALCULATION
------------------------------------------------------------------------------

Gradient of the Kohn-Sham DFT energy:
Kohn-Sham wavefunction type      ... UKS
Hartree-Fock exchange scaling    ...    0.000
Number of operators              ...    2
Number of atoms                  ...    2
Basis set dimensions             ...  143
Integral neglect threshold       ... 2.5e-11
Integral primitive cutoff        ... 2.5e-12

Nuclear repulsion gradient       ... done
One Electron Gradient            ... done
Pre-screening matrix             ... done
RI-J gradient                    ... done
Exchange-correlation gradient    ... done
Dispersion correction            ... done

------------------
CARTESIAN GRADIENT
------------------

   1   Co  :    0.000000005    0.000000008   -0.007467625
   2   S   :   -0.000000004   -0.000000006    0.006897114

Difference to translation invariance:
           :    0.0000000009    0.0000000024   -0.0005705110

Norm of the cartesian gradient     ...    0.0101654127
RMS gradient                       ...    0.0041500124
MAX gradient                       ...    0.0074676254

-------
TIMINGS
-------

Total SCF gradient time            ...        4.526 sec

One electron gradient       ....       0.058 sec  (  1.3%)
Prescreening matrices       ....       3.632 sec  ( 80.2%)
RI-J Coulomb gradient       ....       0.253 sec  (  5.6%)
XC gradient                 ....       0.051 sec  (  1.1%)
------------------------------------------------------------------------------
                         ORCA GEOMETRY RELAXATION STEP
------------------------------------------------------------------------------

Reading the OPT-File                    .... done
Getting information on internals        .... done
Copying old internal coords+grads       .... done
Making the new internal coordinates     .... (new redundants).... done
Validating the new internal coordinates .... (new redundants).... done
Calculating the B-matrix                .... done
Calculating the G,G- and P matrices     .... done
Transforming gradient to internals      .... done
Projecting the internal gradient        .... done
Number of atoms                         ....   2
Number of internal coordinates          ....   1
Current Energy                          .... -1781.088693754 Eh
Current gradient norm                   ....     0.010165413 Eh/bohr
Maximum allowed component of the step   ....  0.300
Current trust radius                    ....  0.300
Evaluating the initial hessian          ....  (Almloef) done
Projecting the Hessian                  .... done
Forming the augmented Hessian           .... done
Diagonalizing the augmented Hessian     .... done
Last element of RFO vector              ....  0.999992154
Lowest eigenvalues of augmented Hessian:
 -0.000028452
Length of the computed step             ....  0.003961375
The final length of the internal step   ....  0.003961375
Converting the step to cartesian space:
 Initial RMS(Int)=    0.0039613745
Transforming coordinates:
 Iter   0:  RMS(Cart)=    0.0011435503 RMS(Int)=    0.0039613745
 Iter   1:  RMS(Cart)=    0.0000000000 RMS(Int)=    0.0000000000
done
Storing new coordinates                 .... done

                                .--------------------.
          ----------------------|Geometry convergence|-------------------------
          Item                value                   Tolerance       Converged
          ---------------------------------------------------------------------
          RMS gradient        0.0071823699            0.0001000000      NO
          MAX gradient        0.0071823699            0.0003000000      NO
          RMS step            0.0039613745            0.0020000000      NO
          MAX step            0.0039613745            0.0040000000      YES
          ........................................................
          Max(Bonds)      0.0021      Max(Angles)    0.00
          Max(Dihed)        0.00      Max(Improp)    0.00
          ---------------------------------------------------------------------

The optimization has not yet converged - more geometry cycles are needed


    ---------------------------------------------------------------------------
                         Redundant Internal Coordinates
                            (Angstroem and degrees)

        Definition                    Value    dE/dq     Step     New-Value
    ----------------------------------------------------------------------------
     1. B(S   1,Co  0)                2.0000  0.007182 -0.0021    1.9979   
    ----------------------------------------------------------------------------

         *************************************************************
         *                GEOMETRY OPTIMIZATION CYCLE   2            *
         *************************************************************
---------------------------------
CARTESIAN COORDINATES (ANGSTROEM)
---------------------------------
  Co     0.000000    0.000000    0.001048
  S      0.000000    0.000000    1.998952

----------------------------
CARTESIAN COORDINATES (A.U.)
----------------------------
  NO LB      ZA    FRAG     MASS         X           Y           Z
   0 Co   27.0000    0    58.930    0.000000    0.000000    0.001981
   1 S    16.0000    0    32.060    0.000000    0.000000    3.777472

--------------------------------
INTERNAL COORDINATES (ANGSTROEM)
--------------------------------
 Co     0   0   0     0.000000000000     0.00000000     0.00000000
 S      1   0   0     1.997903730895     0.00000000     0.00000000

---------------------------
INTERNAL COORDINATES (A.U.)
---------------------------
 Co     0   0   0     0.000000000000     0.00000000     0.00000000
 S      1   0   0     3.775490893332     0.00000000     0.00000000



           ************************************************************
           *        Program running with 24 parallel MPI-processes    *
           *              working on a common directory               *
           ************************************************************
 One Electron integrals                  ... done
 Pre-screening matrix                    ... done


           ************************************************************
           *        Program running with 24 parallel MPI-processes    *
           *              working on a common directory               *
           ************************************************************

Diagonalization of the overlap matrix:
Smallest eigenvalue                        ... 8.668e-05
Time for diagonalization                   ...    0.006 sec
Threshold for overlap eigenvalues          ... 1.000e-08
Number of eigenvalues below threshold      ... 0
Time for construction of square roots      ...    0.002 sec
Total time needed                          ...    0.009 sec

-------------------
DFT GRID GENERATION
-------------------

General Integration Accuracy     IntAcc      ...  4.340
Radial Grid Type                 RadialGrid  ... Gauss-Chebyshev
Angular Grid (max. acc.)         AngularGrid ... Lebedev-110
Angular grid pruning method      GridPruning ... 3 (G Style)
Weight generation scheme         WeightScheme... Becke
Basis function cutoff            BFCut       ...    1.0000e-11
Integration weight cutoff        WCut        ...    1.0000e-14
Grids for H and He will be reduced by one unit

# of grid points (after initial pruning)     ...   4718 (   0.0 sec)
# of grid points (after weights+screening)   ...   4692 (   0.0 sec)
nearest neighbour list constructed           ...    0.0 sec
Grid point re-assignment to atoms done       ...    0.0 sec
Grid point division into batches done        ...    0.0 sec
Reduced shell lists constructed in    0.0 sec

Total number of grid points                  ...     4692
Total number of batches                      ...       75
Average number of points per batch           ...       62
Average number of grid points per atom       ...     2346
Average number of shells per batch           ...    24.00 (58.54%)
Average number of basis functions per batch  ...    72.00 (50.35%)
Average number of large shells per batch     ...    16.80 (70.00%)
Average number of large basis fcns per batch ...    48.00 (66.67%)
Maximum spatial batch extension              ...  18.98, 28.73, 16.15 au
Average spatial batch extension              ...   0.94,  1.29,  0.86 au

Time for grid setup =    0.021 sec

--------------
SCF ITERATIONS
--------------
ITER       Energy         Delta-E        Max-DP      RMS-DP      [F,P]     Damp
               ***  Starting incremental Fock matrix formation  ***
  0  -1781.0845479838   0.000000000000 0.00011401  0.00000306  0.0007195 0.7000
  1  -1781.0845481464  -0.000000162609 0.00009553  0.00000237  0.0005041 0.7000
                               ***Turning on DIIS***
  2  -1781.0845481827  -0.000000036230 0.00028054  0.00000577  0.0003527 0.0000
  3  -1781.0845481722   0.000000010481 0.00066780  0.00000571  0.0001943 0.0000
  4  -1781.0845468872   0.000001284965 0.00017256  0.00000177  0.0010442 0.0000
  5  -1781.0845475733  -0.000000686059 0.00052682  0.00000420  0.0005703 0.0000
  6  -1781.0845481900  -0.000000616708 0.00016175  0.00000146  0.0001200 0.0000
  7  -1781.0845480545   0.000000135490 0.00002487  0.00000041  0.0000420 0.0000
  8  -1781.0845481215  -0.000000067044 0.00000534  0.00000009  0.0000184 0.0000
  9  -1781.0845480681   0.000000053408 0.00001293  0.00000017  0.0000069 0.0000
 10  -1781.0845481205  -0.000000052394 0.00001141  0.00000015  0.0000016 0.0000
                            ***DIIS convergence achieved***

               *****************************************************
               *                     SUCCESS                       *
               *           SCF CONVERGED AFTER  11 CYCLES          *
               *****************************************************

Setting up the final grid:

General Integration Accuracy     IntAcc      ...  4.670
Radial Grid Type                 RadialGrid  ... Gauss-Chebyshev
Angular Grid (max. acc.)         AngularGrid ... Lebedev-302
Angular grid pruning method      GridPruning ... 3 (G Style)
Weight generation scheme         WeightScheme... Becke
Basis function cutoff            BFCut       ...    1.0000e-11
Integration weight cutoff        WCut        ...    1.0000e-14
Grids for H and He will be reduced by one unit

# of grid points (after initial pruning)     ...  16486 (   0.0 sec)
# of grid points (after weights+screening)   ...  16457 (   0.0 sec)
nearest neighbour list constructed           ...    0.0 sec
Grid point re-assignment to atoms done       ...    0.0 sec
Grid point division into batches done        ...    0.1 sec
Reduced shell lists constructed in    0.1 sec

Total number of grid points                  ...    16457
Total number of batches                      ...      258
Average number of points per batch           ...       63
Average number of grid points per atom       ...     8228
Average number of shells per batch           ...    16.75 (40.85%)
Average number of basis functions per batch  ...    41.92 (29.31%)
Average number of large shells per batch     ...     8.67 (51.74%)
Average number of large basis fcns per batch ...    20.50 (48.91%)
Maximum spatial batch extension              ...  24.49, 24.19, 18.13 au
Average spatial batch extension              ...   0.84,  0.83,  0.65 au

Final grid set up in    0.1 sec
Final integration                            ... done (   0.1 sec)
Change in XC energy                          ...    -0.002519313
Integrated number of electrons               ...    43.000021968
Previous integrated no of electrons          ...    42.999955238
Total Energy       :        -1781.08706748 Eh          -48465.84306 eV
  Last Energy change         ...   -4.8502e-08  Tolerance :   1.0000e-08
  Last MAX-Density change    ...    2.0894e-06  Tolerance :   1.0000e-07
             **** THE GBW FILE WAS UPDATED (42_CoS.gbw) ****
             **** DENSITY FILE WAS UPDATED (42_CoS.scfp) ****
             **** ENERGY FILE WAS UPDATED (42_CoS.en.tmp) ****
----------------------
UHF SPIN CONTAMINATION
----------------------

Warning: in a DFT calculation there is little theoretical justification to 
         calculate <S**2> as in Hartree-Fock theory. We will do it anyways
         but you should keep in mind that the values have only limited relevance

Expectation value of <S**2>     :     3.763483
Ideal value S*(S+1) for S=1.5   :     3.750000
Deviation                       :     0.013483

             **** THE GBW FILE WAS UPDATED (42_CoS.gbw) ****
             **** DENSITY FILE WAS UPDATED (42_CoS.scfp) ****
Total SCF time: 0 days 0 hours 0 min 2 sec 


-------------------------------------------------------------------------------
                          DFT DISPERSION CORRECTION                            
                                                                               
                              DFTD3 V3.1  Rev 1                                
                          USING Becke-Johnson damping                          
-------------------------------------------------------------------------------
-------------------------   ----------------
Dispersion correction           -0.001651544
-------------------------   ----------------


-------------------------   --------------------
FINAL SINGLE POINT ENERGY     -1781.088719026269
-------------------------   --------------------



           ************************************************************
           *        Program running with 24 parallel MPI-processes    *
           *              working on a common directory               *
           ************************************************************
------------------------------------------------------------------------------
                         ORCA SCF GRADIENT CALCULATION
------------------------------------------------------------------------------

Gradient of the Kohn-Sham DFT energy:
Kohn-Sham wavefunction type      ... UKS
Hartree-Fock exchange scaling    ...    0.000
Number of operators              ...    2
Number of atoms                  ...    2
Basis set dimensions             ...  143
Integral neglect threshold       ... 2.5e-11
Integral primitive cutoff        ... 2.5e-12

Nuclear repulsion gradient       ... done
One Electron Gradient            ... done
Pre-screening matrix             ... done
RI-J gradient                    ... done
Exchange-correlation gradient    ... done
Dispersion correction            ... done

------------------
CARTESIAN GRADIENT
------------------

   1   Co  :    0.000000004   -0.000000002   -0.006680893
   2   S   :    0.000000007    0.000000004    0.006110257

Difference to translation invariance:
           :    0.0000000102    0.0000000028   -0.0005706362

Norm of the cartesian gradient     ...    0.0090537052
RMS gradient                       ...    0.0036961597
MAX gradient                       ...    0.0066808934

-------
TIMINGS
-------

Total SCF gradient time            ...        4.515 sec

One electron gradient       ....       0.053 sec  (  1.2%)
Prescreening matrices       ....       3.629 sec  ( 80.4%)
RI-J Coulomb gradient       ....       0.255 sec  (  5.6%)
XC gradient                 ....       0.053 sec  (  1.2%)
------------------------------------------------------------------------------
                         ORCA GEOMETRY RELAXATION STEP
------------------------------------------------------------------------------

Reading the OPT-File                    .... done
Getting information on internals        .... done
Copying old internal coords+grads       .... done
Making the new internal coordinates     .... (new redundants).... done
Validating the new internal coordinates .... (new redundants).... done
Calculating the B-matrix                .... done
Calculating the G,G- and P matrices     .... done
Transforming gradient to internals      .... done
Projecting the internal gradient        .... done
Number of atoms                         ....   2
Number of internal coordinates          ....   1
Current Energy                          .... -1781.088719026 Eh
Current gradient norm                   ....     0.009053705 Eh/bohr
Maximum allowed component of the step   ....  0.300
Current trust radius                    ....  0.300
Updating the Hessian (BFGS)             .... done
Forming the augmented Hessian           .... done
Diagonalizing the augmented Hessian     .... done
Last element of RFO vector              ....  0.999483034
Lowest eigenvalues of augmented Hessian:
 -0.000205728
Length of the computed step             ....  0.032167294
The final length of the internal step   ....  0.032167294
Converting the step to cartesian space:
 Initial RMS(Int)=    0.0321672939
Transforming coordinates:
 Iter   0:  RMS(Cart)=    0.0092858979 RMS(Int)=    0.0321672939
 Iter   1:  RMS(Cart)=    0.0000000000 RMS(Int)=    0.0000000000
done
Storing new coordinates                 .... done

                                .--------------------.
          ----------------------|Geometry convergence|-------------------------
          Item                value                   Tolerance       Converged
          ---------------------------------------------------------------------
          Energy change      -0.0000252726            0.0000050000      NO
          RMS gradient        0.0063955753            0.0001000000      NO
          MAX gradient        0.0063955753            0.0003000000      NO
          RMS step            0.0321672939            0.0020000000      NO
          MAX step            0.0321672939            0.0040000000      NO
          ........................................................
          Max(Bonds)      0.0170      Max(Angles)    0.00
          Max(Dihed)        0.00      Max(Improp)    0.00
          ---------------------------------------------------------------------

The optimization has not yet converged - more geometry cycles are needed


    ---------------------------------------------------------------------------
                         Redundant Internal Coordinates
                            (Angstroem and degrees)

        Definition                    Value    dE/dq     Step     New-Value
    ----------------------------------------------------------------------------
     1. B(S   1,Co  0)                1.9979  0.006396 -0.0170    1.9809   
    ----------------------------------------------------------------------------

         *************************************************************
         *                GEOMETRY OPTIMIZATION CYCLE   3            *
         *************************************************************
---------------------------------
CARTESIAN COORDINATES (ANGSTROEM)
---------------------------------
  Co     0.000000    0.000000    0.009559
  S      0.000000    0.000000    1.990441

----------------------------
CARTESIAN COORDINATES (A.U.)
----------------------------
  NO LB      ZA    FRAG     MASS         X           Y           Z
   0 Co   27.0000    0    58.930    0.000000    0.000000    0.018064
   1 S    16.0000    0    32.060    0.000000    0.000000    3.761388

--------------------------------
INTERNAL COORDINATES (ANGSTROEM)
--------------------------------
 Co     0   0   0     0.000000000000     0.00000000     0.00000000
 S      1   0   0     1.980881532102     0.00000000     0.00000000

---------------------------
INTERNAL COORDINATES (A.U.)
---------------------------
 Co     0   0   0     0.000000000000     0.00000000     0.00000000
 S      1   0   0     3.743323599415     0.00000000     0.00000000



           ************************************************************
           *        Program running with 24 parallel MPI-processes    *
           *              working on a common directory               *
           ************************************************************
 One Electron integrals                  ... done
 Pre-screening matrix                    ... done


           ************************************************************
           *        Program running with 24 parallel MPI-processes    *
           *              working on a common directory               *
           ************************************************************

Diagonalization of the overlap matrix:
Smallest eigenvalue                        ... 8.490e-05
Time for diagonalization                   ...    0.006 sec
Threshold for overlap eigenvalues          ... 1.000e-08
Number of eigenvalues below threshold      ... 0
Time for construction of square roots      ...    0.002 sec
Total time needed                          ...    0.008 sec

-------------------
DFT GRID GENERATION
-------------------

General Integration Accuracy     IntAcc      ...  4.340
Radial Grid Type                 RadialGrid  ... Gauss-Chebyshev
Angular Grid (max. acc.)         AngularGrid ... Lebedev-110
Angular grid pruning method      GridPruning ... 3 (G Style)
Weight generation scheme         WeightScheme... Becke
Basis function cutoff            BFCut       ...    1.0000e-11
Integration weight cutoff        WCut        ...    1.0000e-14
Grids for H and He will be reduced by one unit

# of grid points (after initial pruning)     ...   4718 (   0.0 sec)
# of grid points (after weights+screening)   ...   4691 (   0.0 sec)
nearest neighbour list constructed           ...    0.0 sec
Grid point re-assignment to atoms done       ...    0.0 sec
Grid point division into batches done        ...    0.0 sec
Reduced shell lists constructed in    0.0 sec

Total number of grid points                  ...     4691
Total number of batches                      ...       74
Average number of points per batch           ...       63
Average number of grid points per atom       ...     2346
Average number of shells per batch           ...    24.00 (58.54%)
Average number of basis functions per batch  ...    72.00 (50.35%)
Average number of large shells per batch     ...    16.80 (70.00%)
Average number of large basis fcns per batch ...    48.00 (66.67%)
Maximum spatial batch extension              ...  18.98, 28.73, 16.15 au
Average spatial batch extension              ...   0.97,  1.30,  0.87 au

Time for grid setup =    0.019 sec

--------------
SCF ITERATIONS
--------------
ITER       Energy         Delta-E        Max-DP      RMS-DP      [F,P]     Damp
               ***  Starting incremental Fock matrix formation  ***
  0  -1781.0846125230   0.000000000000 0.00095760  0.00002542  0.0058561 0.7000
  1  -1781.0846233298  -0.000010806804 0.00079866  0.00001961  0.0041027 0.7000
                               ***Turning on DIIS***
  2  -1781.0846302555  -0.000006925614 0.00207214  0.00004665  0.0028708 0.0000
  3  -1781.0846452634  -0.000015007992 0.00168458  0.00001736  0.0006237 0.0000
  4  -1781.0846392620   0.000006001444 0.00076630  0.00000841  0.0023562 0.0000
  5  -1781.0846449461  -0.000005684139 0.00113729  0.00000994  0.0003262 0.0000
  6  -1781.0846446867   0.000000259434 0.00068419  0.00000591  0.0008657 0.0000
  7  -1781.0846458135  -0.000001126753 0.00015819  0.00000160  0.0000679 0.0000
  8  -1781.0846457487   0.000000064719 0.00004869  0.00000050  0.0001658 0.0000
  9  -1781.0846457567  -0.000000007915 0.00001251  0.00000012  0.0000514 0.0000
 10  -1781.0846457962  -0.000000039572 0.00001167  0.00000015  0.0000274 0.0000
 11  -1781.0846458509  -0.000000054712 0.00003574  0.00000050  0.0000139 0.0000
 12  -1781.0846459381  -0.000000087142 0.00000612  0.00000012  0.0000050 0.0000
 13  -1781.0846458539   0.000000084229 0.00000254  0.00000004  0.0000028 0.0000
                            ***DIIS convergence achieved***

               *****************************************************
               *                     SUCCESS                       *
               *           SCF CONVERGED AFTER  14 CYCLES          *
               *****************************************************

Setting up the final grid:

General Integration Accuracy     IntAcc      ...  4.670
Radial Grid Type                 RadialGrid  ... Gauss-Chebyshev
Angular Grid (max. acc.)         AngularGrid ... Lebedev-302
Angular grid pruning method      GridPruning ... 3 (G Style)
Weight generation scheme         WeightScheme... Becke
Basis function cutoff            BFCut       ...    1.0000e-11
Integration weight cutoff        WCut        ...    1.0000e-14
Grids for H and He will be reduced by one unit

# of grid points (after initial pruning)     ...  16486 (   0.0 sec)
# of grid points (after weights+screening)   ...  16457 (   0.0 sec)
nearest neighbour list constructed           ...    0.0 sec
Grid point re-assignment to atoms done       ...    0.0 sec
Grid point division into batches done        ...    0.1 sec
Reduced shell lists constructed in    0.1 sec

Total number of grid points                  ...    16457
Total number of batches                      ...      258
Average number of points per batch           ...       63
Average number of grid points per atom       ...     8228
Average number of shells per batch           ...    16.92 (41.26%)
[...]
 113   0.0000       3.946920       107.4012 
 114   0.0000       3.952388       107.5499 
 115   0.0000       3.956538       107.6629 
 116   0.0000       3.992173       108.6326 
 117   0.0000       4.000888       108.8697 
 118   0.0000       4.162021       113.2543 
 119   0.0000       4.221529       114.8736 
 120   0.0000       4.221529       114.8736 
 121   0.0000       4.967567       135.1744 
 122   0.0000       4.999959       136.0558 
 123   0.0000       5.316791       144.6772 
 124   0.0000       5.316791       144.6772 
 125   0.0000       5.320973       144.7910 
 126   0.0000       6.521656       177.4633 
 127   0.0000      10.235355       278.5182 
 128   0.0000      10.235355       278.5182 
 129   0.0000      10.248569       278.8777 
 130   0.0000      10.283570       279.8302 
 131   0.0000      10.347418       281.5675 
 132   0.0000      10.347418       281.5675 
 133   0.0000      10.408514       283.2301 
 134   0.0000      11.385441       309.8136 
 135   0.0000      11.385441       309.8136 
 136   0.0000      11.395012       310.0740 
 137   0.0000      11.397485       310.1413 
 138   0.0000      11.404434       310.3304 
 139   0.0000      11.426729       310.9371 
 140   0.0000      11.545132       314.1590 
 141   0.0000      11.545132       314.1590 
 142   0.0000      11.653274       317.1017 

                 SPIN DOWN ORBITALS
  NO   OCC          E(Eh)            E(eV) 
   0   1.0000    -276.694794     -7529.2481 
   1   1.0000     -88.370108     -2404.6729 
   2   1.0000     -32.445690      -882.8921 
   3   1.0000     -28.108742      -764.8777 
   4   1.0000     -28.108742      -764.8777 
   5   1.0000     -28.105561      -764.7912 
   6   1.0000      -7.723684      -210.1721 
   7   1.0000      -5.702500      -155.1729 
   8   1.0000      -5.699973      -155.1042 
   9   1.0000      -5.699973      -155.1042 
  10   1.0000      -3.572727       -97.2188 
  11   1.0000      -2.280191       -62.0472 
  12   1.0000      -2.272526       -61.8386 
  13   1.0000      -2.272526       -61.8386 
  14   1.0000      -0.590897       -16.0791 
  15   1.0000      -0.285625        -7.7723 
  16   1.0000      -0.235819        -6.4170 
  17   1.0000      -0.235819        -6.4170 
  18   1.0000      -0.227948        -6.2028 
  19   1.0000      -0.194568        -5.2945 
  20   0.0000      -0.155843        -4.2407 
  21   0.0000      -0.146782        -3.9941 
  22   0.0000      -0.146782        -3.9941 
  23   0.0000      -0.106881        -2.9084 
  24   0.0000      -0.013600        -0.3701 
  25   0.0000      -0.013600        -0.3701 
  26   0.0000       0.009107         0.2478 
  27   0.0000       0.010490         0.2855 
  28   0.0000       0.035666         0.9705 
  29   0.0000       0.035666         0.9705 
  30   0.0000       0.058480         1.5913 
  31   0.0000       0.063782         1.7356 
  32   0.0000       0.065633         1.7860 
  33   0.0000       0.078677         2.1409 
  34   0.0000       0.082389         2.2419 
  35   0.0000       0.082389         2.2419 
  36   0.0000       0.100998         2.7483 
  37   0.0000       0.100998         2.7483 
  38   0.0000       0.108389         2.9494 
  39   0.0000       0.126076         3.4307 
  40   0.0000       0.188953         5.1417 
  41   0.0000       0.188953         5.1417 
  42   0.0000       0.208573         5.6755 
  43   0.0000       0.209791         5.7087 
  44   0.0000       0.219795         5.9809 
  45   0.0000       0.239197         6.5089 
  46   0.0000       0.283014         7.7012 
  47   0.0000       0.283014         7.7012 
  48   0.0000       0.302871         8.2416 
  49   0.0000       0.315853         8.5948 
  50   0.0000       0.316915         8.6237 
  51   0.0000       0.363999         9.9049 
  52   0.0000       0.363999         9.9049 
  53   0.0000       0.485390        13.2081 
  54   0.0000       0.494042        13.4436 
  55   0.0000       0.494042        13.4436 
  56   0.0000       0.515961        14.0400 
  57   0.0000       0.588481        16.0134 
  58   0.0000       0.588857        16.0236 
  59   0.0000       0.611051        16.6275 
  60   0.0000       0.611051        16.6275 
  61   0.0000       0.625285        17.0149 
  62   0.0000       0.704896        19.1812 
  63   0.0000       0.704896        19.1812 
  64   0.0000       0.705163        19.1885 
  65   0.0000       0.738014        20.0824 
  66   0.0000       0.741014        20.1640 
  67   0.0000       0.811664        22.0865 
  68   0.0000       0.811664        22.0865 
  69   0.0000       0.873553        23.7706 
  70   0.0000       0.940867        25.6023 
  71   0.0000       0.940867        25.6023 
  72   0.0000       1.015036        27.6205 
  73   0.0000       1.015036        27.6205 
  74   0.0000       1.069784        29.1103 
  75   0.0000       1.176888        32.0248 
  76   0.0000       1.202048        32.7094 
  77   0.0000       1.227205        33.3940 
  78   0.0000       1.227205        33.3940 
  79   0.0000       1.243764        33.8445 
  80   0.0000       1.249448        33.9992 
  81   0.0000       1.276724        34.7414 
  82   0.0000       1.376181        37.4478 
  83   0.0000       1.560383        42.4602 
  84   0.0000       1.560383        42.4602 
  85   0.0000       1.781411        48.4747 
  86   0.0000       1.782079        48.4928 
  87   0.0000       1.878862        51.1264 
  88   0.0000       1.878862        51.1264 
  89   0.0000       1.909573        51.9621 
  90   0.0000       2.069072        56.3023 
  91   0.0000       2.075617        56.4804 
  92   0.0000       2.075617        56.4804 
  93   0.0000       2.103419        57.2369 
  94   0.0000       2.103419        57.2369 
  95   0.0000       2.108073        57.3636 
  96   0.0000       2.109260        57.3959 
  97   0.0000       2.168762        59.0150 
  98   0.0000       2.322571        63.2004 
  99   0.0000       2.322571        63.2004 
 100   0.0000       2.924175        79.5708 
 101   0.0000       3.125466        85.0483 
 102   0.0000       3.125466        85.0483 
 103   0.0000       3.195005        86.9405 
 104   0.0000       3.223413        87.7135 
 105   0.0000       3.228859        87.8617 
 106   0.0000       3.301133        89.8284 
 107   0.0000       3.301133        89.8284 
 108   0.0000       3.364541        91.5538 
 109   0.0000       3.364541        91.5538 
 110   0.0000       3.437046        93.5268 
 111   0.0000       3.922491       106.7364 
 112   0.0000       3.994129       108.6858 
 113   0.0000       4.001039       108.8738 
 114   0.0000       4.002605       108.9164 
 115   0.0000       4.002605       108.9164 
 116   0.0000       4.034244       109.7774 
 117   0.0000       4.056618       110.3862 
 118   0.0000       4.194398       114.1354 
 119   0.0000       4.260212       115.9263 
 120   0.0000       4.260212       115.9263 
 121   0.0000       5.043091       137.2295 
 122   0.0000       5.081473       138.2739 
 123   0.0000       5.336324       145.2088 
 124   0.0000       5.402646       147.0135 
 125   0.0000       5.402646       147.0135 
 126   0.0000       6.573244       178.8671 
 127   0.0000      10.355175       281.7786 
 128   0.0000      10.355175       281.7786 
 129   0.0000      10.394534       282.8497 
 130   0.0000      10.422740       283.6172 
 131   0.0000      10.455572       284.5106 
 132   0.0000      10.455572       284.5106 
 133   0.0000      10.497371       285.6480 
 134   0.0000      11.490793       312.6804 
 135   0.0000      11.490891       312.6831 
 136   0.0000      11.490891       312.6831 
 137   0.0000      11.491072       312.6880 
 138   0.0000      11.506507       313.1080 
 139   0.0000      11.513717       313.3042 
 140   0.0000      11.625701       316.3514 
 141   0.0000      11.625701       316.3514 
 142   0.0000      11.727811       319.1300 

                    ********************************
                    * MULLIKEN POPULATION ANALYSIS *
                    ********************************

--------------------------------------------
MULLIKEN ATOMIC CHARGES AND SPIN POPULATIONS
--------------------------------------------
   0 Co:    0.268320    2.271261
   1 S :   -0.268320    0.728739
Sum of atomic charges         :   -0.0000000
Sum of atomic spin populations:    3.0000000

-----------------------------------------------------
MULLIKEN REDUCED ORBITAL CHARGES AND SPIN POPULATIONS
-----------------------------------------------------
CHARGE
  0 Cos       :     6.844568  s :     6.844568
      pz      :     4.074244  p :    12.227504
      px      :     4.076630
      py      :     4.076630
      dz2     :     1.815202  d :     7.647223
      dxz     :     1.417951
      dyz     :     1.417951
      dx2y2   :     0.998941
      dxy     :     1.997177
      f0      :     0.002808  f :     0.011756
      f+1     :     0.004390
      f-1     :     0.004390
      f+2     :     0.000040
      f-2     :     0.000055
      f+3     :     0.000036
      f-3     :     0.000036
      g0      :     0.000225  g :     0.000629
      g+1     :     0.000171
      g-1     :     0.000171
      g+2     :     0.000002
      g-2     :     0.000009
      g+3     :     0.000004
      g-3     :     0.000004
      g+4     :     0.000042
      g-4     :     0.000000
  1 S s       :     5.952022  s :     5.952022
      pz      :     3.308394  p :    10.272710
      px      :     3.482158
      py      :     3.482158
      dz2     :     0.002503  d :     0.037828
      dxz     :     0.016484
      dyz     :     0.016484
      dx2y2   :     0.000600
      dxy     :     0.001758
      f0      :    -0.000008  f :     0.005760
      f+1     :     0.002175
      f-1     :     0.002175
      f+2     :     0.000417
      f-2     :     0.001002
      f+3     :     0.000000
      f-3     :     0.000000

SPIN
  0 Cos       :     0.073492  s :     0.073492
      pz      :     0.000500  p :     0.051707
      px      :     0.025603
      py      :     0.025603
      dz2     :     0.024546  d :     2.144352
      dxz     :     0.560418
      dyz     :     0.560418
      dx2y2   :     0.998941
      dxy     :     0.000031
      f0      :     0.000345  f :     0.001892
      f+1     :     0.000754
      f-1     :     0.000754
      f+2     :     0.000040
      f-2     :     0.000034
      f+3     :    -0.000018
      f-3     :    -0.000018
      g0      :    -0.000076  g :    -0.000182
      g+1     :    -0.000043
      g-1     :    -0.000043
      g+2     :     0.000002
      g-2     :     0.000005
      g+3     :    -0.000001
      g-3     :    -0.000001
      g+4     :    -0.000026
      g-4     :    -0.000000
  1 S s       :    -0.019832  s :    -0.019832
      pz      :    -0.076580  p :     0.758229
      px      :     0.417405
      py      :     0.417405
      dz2     :    -0.002442  d :    -0.007723
      dxz     :    -0.002892
      dyz     :    -0.002892
      dx2y2   :     0.000600
      dxy     :    -0.000096
      f0      :     0.000073  f :    -0.001935
      f+1     :    -0.001225
      f-1     :    -0.001225
      f+2     :     0.000417
      f-2     :     0.000026
      f+3     :    -0.000000
      f-3     :    -0.000000


                     *******************************
                     * LOEWDIN POPULATION ANALYSIS *
                     *******************************

-------------------------------------------
LOEWDIN ATOMIC CHARGES AND SPIN POPULATIONS
-------------------------------------------
   0 Co:    0.035357    2.323655
   1 S :   -0.035357    0.676345

----------------------------------------------------
LOEWDIN REDUCED ORBITAL CHARGES AND SPIN POPULATIONS
----------------------------------------------------
CHARGE
  0 Cos       :     6.606919  s :     6.606919
      pz      :     4.231220  p :    12.431049
      px      :     4.099915
      py      :     4.099915
      dz2     :     1.933058  d :     7.830659
      dxz     :     1.462419
      dyz     :     1.462419
      dx2y2   :     0.992154
      dxy     :     1.980608
      f0      :     0.036673  f :     0.093648
      f+1     :     0.028173
      f-1     :     0.028173
      f+2     :     0.000206
      f-2     :     0.000351
      f+3     :     0.000036
      f-3     :     0.000036
      g0      :     0.001031  g :     0.002368
      g+1     :     0.000638
      g-1     :     0.000638
      g+2     :     0.000000
      g-2     :     0.000010
      g+3     :     0.000004
      g-3     :     0.000004
      g+4     :     0.000042
      g-4     :     0.000000
  1 S s       :     5.488643  s :     5.488643
      pz      :     3.474690  p :    10.115832
      px      :     3.320571
      py      :     3.320571
      dz2     :     0.137480  d :     0.241608
      dxz     :     0.047617
      dyz     :     0.047617
      dx2y2   :     0.002368
      dxy     :     0.006526
      f0      :     0.090244  f :     0.189273
      f+1     :     0.040626
      f-1     :     0.040626
      f+2     :     0.005272
      f-2     :     0.012505
      f+3     :     0.000000
      f-3     :     0.000000

SPIN
  0 Cos       :     0.028469  s :     0.028469
      pz      :    -0.008668  p :     0.129581
      px      :     0.069124
      py      :     0.069124
      dz2     :     0.020800  d :     2.143352
      dxz     :     0.564729
      dyz     :     0.564729
      dx2y2   :     0.992154
      dxy     :     0.000941
      f0      :     0.000239  f :     0.022055
      f+1     :     0.010757
      f-1     :     0.010757
      f+2     :     0.000206
      f-2     :     0.000131
      f+3     :    -0.000018
      f-3     :    -0.000018
      g0      :    -0.000098  g :     0.000199
      g+1     :     0.000165
      g-1     :     0.000165
      g+2     :     0.000000
      g-2     :    -0.000004
      g+3     :    -0.000001
      g-3     :    -0.000001
      g+4     :    -0.000026
      g-4     :    -0.000000
  1 S s       :     0.001959  s :     0.001959
      pz      :    -0.042942  p :     0.638129
      px      :     0.340536
      py      :     0.340536
      dz2     :     0.000874  d :     0.018899
      dxz     :     0.008073
      dyz     :     0.008073
      dx2y2   :     0.002368
      dxy     :    -0.000488
      f0      :    -0.000606  f :     0.017357
      f+1     :     0.006636
      f-1     :     0.006636
      f+2     :     0.005272
      f-2     :    -0.000579
      f+3     :    -0.000000
      f-3     :    -0.000000


                      *****************************
                      * MAYER POPULATION ANALYSIS *
                      *****************************

  NA   - Mulliken gross atomic population
  ZA   - Total nuclear charge
  QA   - Mulliken gross atomic charge
  VA   - Mayer's total valence
  BVA  - Mayer's bonded valence
  FA   - Mayer's free valence

  ATOM       NA         ZA         QA         VA         BVA        FA
  0 Co    26.7317    27.0000     0.2683     4.1583     2.3725     1.7858
  1 S     16.2683    16.0000    -0.2683     2.7393     2.3725     0.3668

  Mayer bond orders larger than 0.100000
B(  0-Co,  1-S ) :   2.3725 

-------
TIMINGS
-------

Total SCF time: 0 days 0 hours 0 min 1 sec 

Total time                  ....       1.442 sec
Sum of individual times     ....       1.274 sec  ( 88.3%)

Fock matrix formation       ....       1.076 sec  ( 74.6%)
  Split-RI-J                ....       0.786 sec  ( 73.1% of F)
  XC integration            ....       0.133 sec  ( 12.3% of F)
    Basis function eval.    ....       0.017 sec  ( 13.1% of XC)
    Density eval.           ....       0.021 sec  ( 15.6% of XC)
    XC-Functional eval.     ....       0.004 sec  (  3.3% of XC)
    XC-Potential eval.      ....       0.051 sec  ( 38.2% of XC)
Diagonalization             ....       0.031 sec  (  2.1%)
Density matrix formation    ....       0.004 sec  (  0.3%)
Population analysis         ....       0.008 sec  (  0.5%)
Initial guess               ....       0.013 sec  (  0.9%)
Orbital Transformation      ....       0.000 sec  (  0.0%)
Orbital Orthonormalization  ....       0.009 sec  (  0.6%)
DIIS solution               ....       0.007 sec  (  0.5%)
Grid generation             ....       0.135 sec  (  9.4%)


-------------------------------------------------------------------------------
                          DFT DISPERSION CORRECTION                            
                                                                               
                              DFTD3 V3.1  Rev 1                                
                          USING Becke-Johnson damping                          
-------------------------------------------------------------------------------
The TPSS functional is recognized
Active option DFTDOPT                   ...         4   

molecular C6(AA) [au] = 682.766983 


            DFT-D V3
 parameters
 s6 scaling factor         :     1.0000 
 a1 scaling factor         :     0.4535 
 s8 scaling factor         :     1.9435 
 a2 scaling factor         :     4.4752 
 ad hoc parameters k1-k3   :    16.0000     1.3333    -4.0000 

 Edisp/kcal,au: -1.036075895390  -0.001651091860 
 E6   /kcal   :  -0.353006571 
 E8   /kcal   :  -0.683069325 
 % E8         :  65.928502718 

-------------------------   ----------------
Dispersion correction           -0.001651092
-------------------------   ----------------


-------------------------   --------------------
FINAL SINGLE POINT ENERGY     -1781.088809514280
-------------------------   --------------------

                                *** OPTIMIZATION RUN DONE ***

                            ***************************************
                            *     ORCA property calculations      *
                            ***************************************

                                    ---------------------
                                    Active property flags
                                    ---------------------
   (+) Dipole Moment


------------------------------------------------------------------------------
                       ORCA ELECTRIC PROPERTIES CALCULATION
------------------------------------------------------------------------------

Dipole Moment Calculation                       ... on
Quadrupole Moment Calculation                   ... off
Polarizability Calculation                      ... off
GBWName                                         ... 42_CoS.gbw
Electron density file                           ... 42_CoS.scfp
The origin for moment calculation is the CENTER OF MASS  = ( 0.000000,  0.000000  1.336811)

-------------
DIPOLE MOMENT
-------------
                                X             Y             Z
Electronic contribution:     -0.00000       0.00000      -4.84490
Nuclear contribution   :      0.00000       0.00000       3.17962
                        -----------------------------------------
Total Dipole Moment    :     -0.00000       0.00000      -1.66528
                        -----------------------------------------
Magnitude (a.u.)       :      1.66528
Magnitude (Debye)      :      4.23281



--------------------
Rotational spectrum 
--------------------
 
Rotational constants in cm-1:     0.000000     0.206757     0.206757 
Rotational constants in MHz :     0.000000  6198.412278  6198.412278 

 Dipole components along the rotational axes: 
x,y,z [a.u.] :    -1.665280     0.000000    -0.000000 
x,y,z [Debye]:    -4.232806     0.000000    -0.000000 

 

Timings for individual modules:

Sum of individual times         ...       57.194 sec (=   0.953 min)
GTO integral calculation        ...       15.019 sec (=   0.250 min)  26.3 %
SCF iterations                  ...       22.469 sec (=   0.374 min)  39.3 %
SCF Gradient evaluation         ...       19.569 sec (=   0.326 min)  34.2 %
Geometry relaxation             ...        0.138 sec (=   0.002 min)   0.2 %
                             ****ORCA TERMINATED NORMALLY****
TOTAL RUN TIME: 0 days 0 hours 0 minutes 58 seconds 24 msec
