
                                 *****************
                                 * O   R   C   A *
                                 *****************

           --- An Ab Initio, DFT and Semiempirical electronic structure package ---

                  #######################################################
                  #                        -***-                        #
                  #          Department of theory and spectroscopy      #
                  #               Directorship: Frank Neese             #
                  #        Max Planck Institute fuer Kohlenforschung    #
                  #                Kaiser Wilhelm Platz 1               #
                  #                 D-45470 Muelheim/Ruhr               #
                  #                      Germany                        #
                  #                                                     #
                  #                  All rights reserved                #
                  #                        -***-                        #
                  #######################################################


                         Program Version 4.2.0 -  RELEASE  -


 With contributions from (in alphabetic order):
   Daniel Aravena         : Magnetic Suceptibility
   Michael Atanasov       : Ab Initio Ligand Field Theory (pilot matlab implementation)
   Alexander A. Auer      : GIAO ZORA, VPT2
   Ute Becker             : Parallelization
   Giovanni Bistoni       : ED, misc. LED, open-shell LED, HFLED
   Martin Brehm           : Molecular dynamics
   Dmytro Bykov           : SCF Hessian
   Vijay G. Chilkuri      : MRCI spin determinant printing, contributions to CSF-ICE
   Dipayan Datta          : RHF DLPNO-CCSD density
   Achintya Kumar Dutta   : EOM-CC, STEOM-CC
   Dmitry Ganyushin       : Spin-Orbit,Spin-Spin,Magnetic field MRCI
   Miquel Garcia          : C-PCM Hessian, Gaussian charge scheme
   Yang Guo               : DLPNO-NEVPT2, CIM, IAO-localization
   Andreas Hansen         : Spin unrestricted coupled pair/coupled cluster methods
   Benjamin Helmich-Paris : CASSCF linear response (MC-RPA)
   Lee Huntington         : MR-EOM, pCC
   Robert Izsak           : Overlap fitted RIJCOSX, COSX-SCS-MP3, EOM
   Christian Kollmar      : KDIIS, OOCD, Brueckner-CCSD(T), CCSD density
   Simone Kossmann        : Meta GGA functionals, TD-DFT gradient, OOMP2, MP2 Hessian
   Martin Krupicka        : AUTO-CI
   Lucas Lang             : DCDCAS
   Dagmar Lenk            : GEPOL surface, SMD
   Dimitrios Liakos       : Extrapolation schemes; Compound Job, initial MDCI parallelization
   Dimitrios Manganas     : Further ROCIS development; embedding schemes
   Dimitrios Pantazis     : SARC Basis sets
   Taras Petrenko         : DFT Hessian,TD-DFT gradient, ASA, ECA, R-Raman, ABS, FL, XAS/XES, NRVS
   Peter Pinski           : DLPNO-MP2, DLPNO-MP2 Gradient
   Christoph Reimann      : Effective Core Potentials
   Marius Retegan         : Local ZFS, SOC
   Christoph Riplinger    : Optimizer, TS searches, QM/MM, DLPNO-CCSD(T), (RO)-DLPNO pert. Triples
   Tobias Risthaus        : Range-separated hybrids, TD-DFT gradient, RPA, STAB
   Michael Roemelt        : Original ROCIS implementation
   Masaaki Saitow         : Open-shell DLPNO-CCSD energy and density
   Barbara Sandhoefer     : DKH picture change effects
   Avijit Sen             : IP-ROCIS
   Kantharuban Sivalingam : CASSCF convergence, NEVPT2, FIC-MRCI
   Bernardo de Souza      : ESD, SOC TD-DFT
   Georgi Stoychev        : AutoAux, RI-MP2 NMR
   Willem Van den Heuvel  : Paramagnetic NMR
   Boris Wezisla          : Elementary symmetry handling
   Frank Wennmohs         : Technical directorship


 We gratefully acknowledge several colleagues who have allowed us to
 interface, adapt or use parts of their codes:
   Stefan Grimme, W. Hujo, H. Kruse,             : VdW corrections, initial TS optimization,
                  C. Bannwarth                     DFT functionals, gCP, sTDA/sTD-DF
   Ed Valeev, F. Pavosevic, A. Kumar             : LibInt (2-el integral package), F12 methods
   Garnet Chan, S. Sharma, J. Yang, R. Olivares  : DMRG
   Ulf Ekstrom                                   : XCFun DFT Library
   Mihaly Kallay                                 : mrcc  (arbitrary order and MRCC methods)
   Andreas Klamt, Michael Diedenhofen            : otool_cosmo (COSMO solvation model)
   Jiri Pittner, Ondrej Demel                    : Mk-CCSD
   Frank Weinhold                                : gennbo (NPA and NBO analysis)
   Christopher J. Cramer and Donald G. Truhlar   : smd solvation model
   Lars Goerigk                                  : TD-DFT with DH, B97 family of functionals
   V. Asgeirsson, H. Jonsson                     : NEB implementation
   FAccTs GmbH                                   : IRC, NEB, NEB-TS, Multilevel, MM, QM/MM, CI optimization
   S Lehtola, MJT Oliveira, MAL Marques          : LibXC Library


 Your calculation uses the libint2 library for the computation of 2-el integrals
 For citations please refer to: http://libint.valeyev.net

 Your ORCA version has been built with support for libXC version: 4.2.3
 For citations please refer to: https://tddft.org/programs/libxc/

 This ORCA versions uses:
   CBLAS   interface :  Fast vector & matrix operations
   LAPACKE interface :  Fast linear algebra routines
   SCALAPACK package :  Parallel linear algebra routines


Your calculation utilizes the atom-pairwise dispersion correction
with the Becke-Johnson damping scheme (D3BJ)
Cite in your paper:
S.Grimme, S.Ehrlich, L.Goerigk, J Comput Chem, (2011), 32, 1456–1465 
S.Grimme, J.Antony, S.Ehrlich and H.Krieg, J.Chem.Phys., 132, (2010), 154104 
   

----- Orbital basis set information -----
Your calculation utilizes the basis: aug-cc-pVTZ 
    H, B-Ne : Obtained from the ccRepo (grant-hill.group.shef.ac.uk/ccrepo) Feb. 2017
              R. A. Kendall, T. H. Dunning, Jr., R. J. Harrison, J. Chem. Phys. 96, 6796 (1992)
         He : Obtained from the ccRepo (grant-hill.group.shef.ac.uk/ccrepo) Feb. 2017
              D. E. Woon, T. H. Dunning, Jr., J. Chem. Phys. 100, 2975 (1994)
  Li-Be, Na : Obtained from the ccRepo (grant-hill.group.shef.ac.uk/ccrepo) Feb. 2017
              B. P. Prascher, D. E. Woon, K. A. Peterson, T. H. Dunning, Jr., A. K. Wilson, Theor. Chem. Acc. 128, 69 (2011)
         Mg : Obtained from the Peterson Research Group Website (tyr0.chem.wsu.edu/~kipeters) Feb. 2017
              B. P. Prascher, D. E. Woon, K. A. Peterson, T. H. Dunning, Jr., A. K. Wilson, Theor. Chem. Acc. 128, 69 (2011)
      Al-Ar : Obtained from the ccRepo (grant-hill.group.shef.ac.uk/ccrepo) Feb. 2017
              D. E. Woon, T. H. Dunning, Jr., J. Chem. Phys. 98, 1358 (1993)
      Sc-Zn : Obtained from the ccRepo (grant-hill.group.shef.ac.uk/ccrepo) Feb. 2017
              N. B. Balabanov, K. A. Peterson, J. Chem. Phys. 123, 064107 (2005)
              N. B. Balabanov, K. A. Peterson, J. Chem. Phys. 125, 074110 (2006)
      Ga-Kr : Obtained from the ccRepo (grant-hill.group.shef.ac.uk/ccrepo) Feb. 2017
              A. K. Wilson, D. E. Woon, K. A. Peterson, T. H. Dunning, Jr., J. Chem. Phys. 110, 7667 (1999)
     Ag, Au : Obtained from the Peterson Research Group Website (tyr0.chem.wsu.edu/~kipeters) Feb. 2017
              K. A. Peterson, C. Puzzarini, Theor. Chem. Acc. 114, 283 (2005)

----- AuxJ basis set information -----
Your calculation utilizes the auxiliary basis: def2/J
   F. Weigend, Phys. Chem. Chem. Phys. 8, 1057 (2006).

================================================================================
                                        WARNINGS
                       Please study these warnings very carefully!
================================================================================


WARNING: your system is open-shell and RHF/RKS was chosen
  ===> : WILL SWITCH to UHF/UKS


WARNING: Geometry Optimization
  ===> : Switching off AutoStart
         For restart on a previous wavefunction, please use MOREAD

INFO   : the flag for use of LIBINT has been found!

================================================================================
                                       INPUT FILE
================================================================================
NAME = 43_NiH.in
|  1> #
|  2> # 43_NiH tpss/aug-cc-pvtz
|  3> #
|  4> ! tpss d3bj aug-cc-pvtz def2/j opt xyzfile
|  5> 
|  6> *xyz 0 2
|  7> Ni 0.0 0.0 0.0
|  8> H 0.0 0.0 2.0
|  9> *
| 10> 
| 11> %pal
| 12> nprocs 24
| 13> end
| 14> 
| 15> 
| 16>                          ****END OF INPUT****
================================================================================

                       *****************************
                       * Geometry Optimization Run *
                       *****************************

Geometry optimization settings:
Update method            Update   .... BFGS
Choice of coordinates    CoordSys .... Z-matrix Internals
Initial Hessian          InHess   .... Almoef's Model

Convergence Tolerances:
Energy Change            TolE     ....  5.0000e-06 Eh
Max. Gradient            TolMAXG  ....  3.0000e-04 Eh/bohr
RMS Gradient             TolRMSG  ....  1.0000e-04 Eh/bohr
Max. Displacement        TolMAXD  ....  4.0000e-03 bohr
RMS Displacement         TolRMSD  ....  2.0000e-03 bohr
Strict Convergence                ....  False
------------------------------------------------------------------------------
                        ORCA OPTIMIZATION COORDINATE SETUP
------------------------------------------------------------------------------

The optimization will be done in new redundant internal coordinates
Making redundant internal coordinates   ...  (new redundants) done
Evaluating the initial hessian          ...  (Almloef) done
Evaluating the coordinates              ...  done
Calculating the B-matrix                .... done
Calculating the G-matrix                .... done
Diagonalizing the G-matrix              .... done
The first mode is                       ....    0
The number of degrees of freedom        ....    1

    -----------------------------------------------------------------
                    Redundant Internal Coordinates


    -----------------------------------------------------------------
         Definition                    Initial Value    Approx d2E/dq
    -----------------------------------------------------------------
      1. B(H   1,Ni  0)                  2.0000         0.128736   
    -----------------------------------------------------------------

Number of atoms                         .... 2
Number of degrees of freedom            .... 1

         *************************************************************
         *                GEOMETRY OPTIMIZATION CYCLE   1            *
         *************************************************************
---------------------------------
CARTESIAN COORDINATES (ANGSTROEM)
---------------------------------
  Ni     0.000000    0.000000    0.000000
  H      0.000000    0.000000    2.000000

----------------------------
CARTESIAN COORDINATES (A.U.)
----------------------------
  NO LB      ZA    FRAG     MASS         X           Y           Z
   0 Ni   28.0000    0    58.700    0.000000    0.000000    0.000000
   1 H     1.0000    0     1.008    0.000000    0.000000    3.779452

--------------------------------
INTERNAL COORDINATES (ANGSTROEM)
--------------------------------
 Ni     0   0   0     0.000000000000     0.00000000     0.00000000
 H      1   0   0     2.000000000000     0.00000000     0.00000000

---------------------------
INTERNAL COORDINATES (A.U.)
---------------------------
 Ni     0   0   0     0.000000000000     0.00000000     0.00000000
 H      1   0   0     3.779452267843     0.00000000     0.00000000

---------------------
BASIS SET INFORMATION
---------------------
There are 2 groups of distinct atoms

 Group   1 Type Ni  : 116s77p23d3f2g contracted to 8s7p5d3f2g pattern {19191919191911/151515151511/77711/111/11}
 Group   2 Type H   : 6s3p2d contracted to 4s3p2d pattern {3111/111/11}

Atom   0Ni   basis set group =>   1
Atom   1H    basis set group =>   2
---------------------------------
AUXILIARY/J BASIS SET INFORMATION
---------------------------------
There are 2 groups of distinct atoms

 Group   1 Type Ni  : 19s5p5d3f3g contracted to 8s5p5d2f3g pattern {121111111/11111/11111/21/111}
 Group   2 Type H   : 5s2p1d contracted to 3s1p1d pattern {311/2/1}

Atom   0Ni   basis set group =>   1
Atom   1H    basis set group =>   2


           ************************************************************
           *        Program running with 24 parallel MPI-processes    *
           *              working on a common directory               *
           ************************************************************
------------------------------------------------------------------------------
                           ORCA GTO INTEGRAL CALCULATION
                           -- RI-GTO INTEGRALS CHOSEN --
------------------------------------------------------------------------------

                         BASIS SET STATISTICS AND STARTUP INFO

Gaussian basis set:
 # of primitive gaussian shells          ...  232
 # of primitive gaussian functions       ...  526
 # of contracted shells                  ...   34
 # of contracted basis functions         ...  116
 Highest angular momentum                ...    4
 Maximum contraction depth               ...   19
Auxiliary gaussian basis set:
 # of primitive gaussian shells          ...   43
 # of primitive gaussian functions       ...  123
 # of contracted shells                  ...   28
 # of contracted aux-basis functions     ...  100
 Highest angular momentum                ...    4
 Maximum contraction depth               ...   12
Ratio of auxiliary to basis functions    ...  0.86
Integral package used                  ... LIBINT
 One Electron integrals                  ... done
 Ordering auxiliary basis shells         ... done
 Integral threshhold             Thresh  ...  2.500e-11
 Primitive cut-off               TCut    ...  2.500e-12
 Pre-screening matrix                    ... done
 Shell pair data                         ... 
 Ordering of the shell pairs             ... done (   0.000 sec) 595 of 595 pairs
 Determination of significant pairs      ... done (   0.000 sec)
 Creation of shell pair data             ... done (   0.001 sec)
 Storage of shell pair data              ... done (   0.054 sec)
 Shell pair data done in (   0.055 sec)
 Computing two index integrals           ... done
 Cholesky decomposition of the V-matrix  ... done


Timings:
 Total evaluation time                   ...   2.105 sec (  0.035 min)
 One electron matrix time                ...   0.038 sec (  0.001 min) =  1.8%
 Schwartz matrix evaluation time         ...   1.977 sec (  0.033 min) = 93.9%
 Two index repulsion integral time       ...   0.001 sec (  0.000 min) =  0.0%
 Cholesky decomposition of V             ...   0.001 sec (  0.000 min) =  0.0%
 Three index repulsion integral time     ...   0.000 sec (  0.000 min) =  0.0%



           ************************************************************
           *        Program running with 24 parallel MPI-processes    *
           *              working on a common directory               *
           ************************************************************
-------------------------------------------------------------------------------
                                 ORCA SCF
-------------------------------------------------------------------------------

------------
SCF SETTINGS
------------
Hamiltonian:
 Density Functional     Method          .... DFT(GTOs)
 Exchange Functional    Exchange        .... TPSS
 Correlation Functional Correlation     .... TPSS
 LDA part of GGA corr.  LDAOpt          .... PW91-LDA
 Gradients option       PostSCFGGA      .... off
   Density functional embedding theory  .... OFF
   NL short-range parameter             ....  5.000000
 RI-approximation to the Coulomb term is turned on
   Number of auxiliary basis functions  .... 100


General Settings:
 Integral files         IntName         .... 43_NiH
 Hartree-Fock type      HFTyp           .... UHF
 Total Charge           Charge          ....    0
 Multiplicity           Mult            ....    2
 Number of Electrons    NEL             ....   29
 Basis Dimension        Dim             ....  116
 Nuclear Repulsion      ENuc            ....      7.4084809162 Eh

Convergence Acceleration:
 DIIS                   CNVDIIS         .... on
   Start iteration      DIISMaxIt       ....    12
   Startup error        DIISStart       ....  0.200000
   # of expansion vecs  DIISMaxEq       ....     5
   Bias factor          DIISBfac        ....   1.050
   Max. coefficient     DIISMaxC        ....  10.000
 Newton-Raphson         CNVNR           .... off
 SOSCF                  CNVSOSCF        .... off
 Level Shifting         CNVShift        .... on
   Level shift para.    LevelShift      ....    0.2500
   Turn off err/grad.   ShiftErr        ....    0.0010
 Zerner damping         CNVZerner       .... off
 Static damping         CNVDamp         .... on
   Fraction old density DampFac         ....    0.7000
   Max. Damping (<1)    DampMax         ....    0.9800
   Min. Damping (>=0)   DampMin         ....    0.0000
   Turn off err/grad.   DampErr         ....    0.1000
 Fernandez-Rico         CNVRico         .... off

SCF Procedure:
 Maximum # iterations   MaxIter         ....   125
 SCF integral mode      SCFMode         .... Direct
   Integral package                     .... LIBINT
 Reset frequency        DirectResetFreq ....    20
 Integral Threshold     Thresh          ....  2.500e-11 Eh
 Primitive CutOff       TCut            ....  2.500e-12 Eh

Convergence Tolerance:
 Convergence Check Mode ConvCheckMode   .... Total+1el-Energy
 Convergence forced     ConvForced      .... 0
 Energy Change          TolE            ....  1.000e-08 Eh
 1-El. energy change                    ....  1.000e-05 Eh
 DIIS Error             TolErr          ....  5.000e-07


Diagonalization of the overlap matrix:
Smallest eigenvalue                        ... 3.664e-04
Time for diagonalization                   ...    0.004 sec
Threshold for overlap eigenvalues          ... 1.000e-08
Number of eigenvalues below threshold      ... 0
Time for construction of square roots      ...    0.002 sec
Total time needed                          ...    0.006 sec

-------------------
DFT GRID GENERATION
-------------------

General Integration Accuracy     IntAcc      ...  4.340
Radial Grid Type                 RadialGrid  ... Gauss-Chebyshev
Angular Grid (max. acc.)         AngularGrid ... Lebedev-110
Angular grid pruning method      GridPruning ... 3 (G Style)
Weight generation scheme         WeightScheme... Becke
Basis function cutoff            BFCut       ...    1.0000e-11
Integration weight cutoff        WCut        ...    1.0000e-14
Grids for H and He will be reduced by one unit

# of grid points (after initial pruning)     ...   3706 (   0.0 sec)
# of grid points (after weights+screening)   ...   3685 (   0.0 sec)
nearest neighbour list constructed           ...    0.0 sec
Grid point re-assignment to atoms done       ...    0.0 sec
Grid point division into batches done        ...    0.0 sec
Reduced shell lists constructed in    0.0 sec

Total number of grid points                  ...     3685
Total number of batches                      ...       59
Average number of points per batch           ...       62
Average number of grid points per atom       ...     1842
Average number of shells per batch           ...    20.25 (59.56%)
Average number of basis functions per batch  ...    56.25 (48.49%)
Average number of large shells per batch     ...    16.50 (81.48%)
Average number of large basis fcns per batch ...    49.50 (88.00%)
Maximum spatial batch extension              ...  18.14, 26.34, 14.81 au
Average spatial batch extension              ...   0.91,  1.20,  0.75 au

Time for grid setup =    0.044 sec

------------------------------
INITIAL GUESS: MODEL POTENTIAL
------------------------------
Loading Hartree-Fock densities                     ... done
Calculating cut-offs                               ... done
Setting up the integral package                    ... done
Initializing the effective Hamiltonian             ... done
Starting the Coulomb interaction                   ... done (   0.0 sec)
Reading the grid                                   ... done
Mapping shells                                     ... done
Starting the XC term evaluation                    ... done (   0.0 sec)
  promolecular density results
     # of electrons  =     28.999264731
     EX              =    -61.769795215
     EC              =     -1.290630825
     EX+EC           =    -63.060426040
Transforming the Hamiltonian                       ... done (   0.0 sec)
Diagonalizing the Hamiltonian                      ... done (   0.0 sec)
Back transforming the eigenvectors                 ... done (   0.0 sec)
Now organizing SCF variables                       ... done
                      ------------------
                      INITIAL GUESS DONE (   0.2 sec)
                      ------------------
--------------
SCF ITERATIONS
--------------
ITER       Energy         Delta-E        Max-DP      RMS-DP      [F,P]     Damp
               ***  Starting incremental Fock matrix formation  ***
  0  -1508.6780109735   0.000000000000 0.29103990  0.00481186  0.5195507 0.7000
  1  -1508.1175264457   0.560484527723 0.14087448  0.00196958  0.6204595 0.7000
  2  -1508.4992211330  -0.381694687252 0.09620668  0.00146147  0.2572759 0.7000
  3  -1508.5809500353  -0.081728902311 0.09011946  0.00128980  0.3104743 0.7000
                               ***Turning on DIIS***
  4  -1508.6912328708  -0.110282835516 0.32158376  0.00295337  0.0789909 0.0000
  5  -1508.8789522267  -0.187719355857 0.00874582  0.00019758  0.1929127 0.7000
  6  -1508.8917216340  -0.012769407292 0.01216857  0.00022317  0.1362640 0.7000
  7  -1508.9012208209  -0.009499186906 0.04348828  0.00071848  0.0883551 0.0000
  8  -1508.9183284981  -0.017107677275 0.01810556  0.00026009  0.0413878 0.0000
  9  -1508.9218035251  -0.003475026954 0.02390777  0.00031921  0.0282793 0.0000
 10  -1508.9243810014  -0.002577476280 0.01687467  0.00019336  0.0159796 0.0000
 11  -1508.9255040946  -0.001123093226 0.01468516  0.00014657  0.0081147 0.0000
 12  -1508.9260770432  -0.000572948595 0.01155973  0.00012187  0.0066418 0.0000
 13  -1508.9264429438  -0.000365900612 0.00887592  0.00010304  0.0049794 0.0000
 14  -1508.9266685523  -0.000225608528 0.00610998  0.00007231  0.0030283 0.0000
 15  -1508.9267775886  -0.000109036283 0.00432961  0.00005460  0.0024233 0.0000
 16  -1508.9268357895  -0.000058200884 0.00292738  0.00003836  0.0016459 0.0000
 17  -1508.9268641584  -0.000028368853 0.00194755  0.00002642  0.0012186 0.0000
 18  -1508.9268775347  -0.000013376306 0.00403900  0.00005672  0.0008047 0.0000
 19  -1508.9268865275  -0.000008992803 0.00015797  0.00000375  0.0015021 0.0000
               *** Restarting incremental Fock matrix formation ***
                                   *** Resetting DIIS ***
 20  -1508.9268868791  -0.000000351623 0.00233586  0.00002132  0.0003504 0.0000
 21  -1508.9268865378   0.000000341339 0.00009084  0.00000283  0.0013418 0.0000
 22  -1508.9268873717  -0.000000833986 0.00232374  0.00001755  0.0003541 0.0000
 23  -1508.9268881733  -0.000000801559 0.00152882  0.00001149  0.0004186 0.0000
 24  -1508.9268877368   0.000000436459 0.00132821  0.00000987  0.0003866 0.0000
 25  -1508.9268874401   0.000000296749 0.00082063  0.00000606  0.0003557 0.0000
 26  -1508.9268873796   0.000000060532 0.00272119  0.00002017  0.0003017 0.0000
 27  -1508.9268869657   0.000000413861 0.00695808  0.00005155  0.0002642 0.0000
 28  -1508.9268863257   0.000000640045 0.00061008  0.00000509  0.0001622 0.0000
 29  -1508.9268864521  -0.000000126423 0.00359047  0.00002656  0.0001154 0.0000
 30  -1508.9268864049   0.000000047175 0.00049295  0.00000367  0.0000319 0.0000
 31  -1508.9268863920   0.000000012912 0.00017689  0.00000140  0.0000124 0.0000
 32  -1508.9268863862   0.000000005794 0.00018253  0.00000131  0.0000121 0.0000
 33  -1508.9268863462   0.000000039975 0.00003160  0.00000030  0.0000034 0.0000
 34  -1508.9268863646  -0.000000018373 0.00007460  0.00000057  0.0000039 0.0000
 35  -1508.9268863762  -0.000000011571 0.00002534  0.00000020  0.0000044 0.0000
 36  -1508.9268863703   0.000000005858 0.00007530  0.00000054  0.0000047 0.0000
 37  -1508.9268863398   0.000000030454 0.00000899  0.00000007  0.0000048 0.0000
                 **** Energy Check signals convergence ****

               *****************************************************
               *                     SUCCESS                       *
               *           SCF CONVERGED AFTER  38 CYCLES          *
               *****************************************************

Setting up the final grid:

General Integration Accuracy     IntAcc      ...  4.670
Radial Grid Type                 RadialGrid  ... Gauss-Chebyshev
Angular Grid (max. acc.)         AngularGrid ... Lebedev-302
Angular grid pruning method      GridPruning ... 3 (G Style)
Weight generation scheme         WeightScheme... Becke
Basis function cutoff            BFCut       ...    1.0000e-11
Integration weight cutoff        WCut        ...    1.0000e-14
Grids for H and He will be reduced by one unit

# of grid points (after initial pruning)     ...  13058 (   0.0 sec)
# of grid points (after weights+screening)   ...  13030 (   0.0 sec)
nearest neighbour list constructed           ...    0.0 sec
Grid point re-assignment to atoms done       ...    0.0 sec
Grid point division into batches done        ...    0.1 sec
Reduced shell lists constructed in    0.1 sec

Total number of grid points                  ...    13030
Total number of batches                      ...      204
Average number of points per batch           ...       63
Average number of grid points per atom       ...     6515
Average number of shells per batch           ...    16.40 (48.24%)
Average number of basis functions per batch  ...    36.40 (31.38%)
Average number of large shells per batch     ...     9.50 (57.93%)
Average number of large basis fcns per batch ...    21.70 (59.62%)
Maximum spatial batch extension              ...  28.79, 26.18, 17.31 au
Average spatial batch extension              ...   0.93,  0.85,  0.67 au

Final grid set up in    0.1 sec
Final integration                            ... done (   0.1 sec)
Change in XC energy                          ...     0.002008930
Integrated number of electrons               ...    29.000011441
Previous integrated no of electrons          ...    29.000696289

----------------
TOTAL SCF ENERGY
----------------

Total Energy       :        -1508.92487742 Eh          -41059.93336 eV

Components:
Nuclear Repulsion  :            7.40848092 Eh             201.59501 eV
Electronic Energy  :        -1516.33335833 Eh          -41261.52838 eV
One Electron Energy:        -2112.49344515 Eh          -57483.86907 eV
Two Electron Energy:          596.16008681 Eh           16222.34069 eV

Virial components:
Potential Energy   :        -3015.53758147 Eh          -82056.94929 eV
Kinetic Energy     :         1506.61270406 Eh           40997.01593 eV
Virial Ratio       :            2.00153468


DFT components:
N(Alpha)           :       15.000005645457 electrons
N(Beta)            :       14.000005795793 electrons
N(Total)           :       29.000011441250 electrons
E(X)               :      -62.237634083148 Eh       
E(C)               :       -1.303314799259 Eh       
E(XC)              :      -63.540948882407 Eh       
DFET-embed. en.    :        0.000000000000 Eh       

---------------
SCF CONVERGENCE
---------------

  Last Energy change         ...   -8.4669e-09  Tolerance :   1.0000e-08
  Last MAX-Density change    ...    2.3501e-05  Tolerance :   1.0000e-07
  Last RMS-Density change    ...    1.7445e-07  Tolerance :   5.0000e-09
  Last DIIS Error            ...    4.7706e-06  Tolerance :   5.0000e-07

             **** THE GBW FILE WAS UPDATED (43_NiH.gbw) ****
             **** DENSITY FILE WAS UPDATED (43_NiH.scfp) ****
             **** ENERGY FILE WAS UPDATED (43_NiH.en.tmp) ****
----------------------
UHF SPIN CONTAMINATION
----------------------

Warning: in a DFT calculation there is little theoretical justification to 
         calculate <S**2> as in Hartree-Fock theory. We will do it anyways
         but you should keep in mind that the values have only limited relevance

Expectation value of <S**2>     :     0.769759
Ideal value S*(S+1) for S=0.5   :     0.750000
Deviation                       :     0.019759

             **** THE GBW FILE WAS UPDATED (43_NiH.gbw) ****
             **** DENSITY FILE WAS UPDATED (43_NiH.scfp) ****
----------------
ORBITAL ENERGIES
----------------
                 SPIN UP ORBITALS
  NO   OCC          E(Eh)            E(eV) 
   0   1.0000    -298.907668     -8133.6912 
   1   1.0000     -35.304376      -960.6809 
   2   1.0000     -30.760557      -837.0373 
   3   1.0000     -30.729847      -836.2016 
   4   1.0000     -30.729831      -836.2012 
   5   1.0000      -3.842118      -104.5493 
   6   1.0000      -2.493220       -67.8440 
   7   1.0000      -2.429344       -66.1058 
   8   1.0000      -2.429308       -66.1048 
   9   1.0000      -0.249237        -6.7821 
  10   1.0000      -0.207853        -5.6560 
  11   1.0000      -0.189445        -5.1551 
  12   1.0000      -0.189433        -5.1547 
  13   1.0000      -0.169791        -4.6202 
  14   1.0000      -0.169788        -4.6202 
  15   0.0000      -0.116702        -3.1756 
  16   0.0000      -0.025045        -0.6815 
  17   0.0000      -0.025039        -0.6813 
  18   0.0000       0.006288         0.1711 
  19   0.0000       0.017127         0.4660 
  20   0.0000       0.039406         1.0723 
  21   0.0000       0.039409         1.0724 
  22   0.0000       0.048582         1.3220 
  23   0.0000       0.071925         1.9572 
  24   0.0000       0.071927         1.9572 
  25   0.0000       0.077756         2.1158 
  26   0.0000       0.078446         2.1346 
  27   0.0000       0.079628         2.1668 
  28   0.0000       0.117701         3.2028 
  29   0.0000       0.161310         4.3895 
  30   0.0000       0.193233         5.2581 
  31   0.0000       0.202117         5.4999 
  32   0.0000       0.202125         5.5001 
  33   0.0000       0.243618         6.6292 
  34   0.0000       0.243621         6.6293 
  35   0.0000       0.317995         8.6531 
  36   0.0000       0.355567         9.6755 
  37   0.0000       0.356515         9.7013 
  38   0.0000       0.363833         9.9004 
  39   0.0000       0.363838         9.9005 
  40   0.0000       0.450466        12.2578 
  41   0.0000       0.570210        15.5162 
  42   0.0000       0.629482        17.1291 
  43   0.0000       0.719665        19.5831 
  44   0.0000       0.720334        19.6013 
  45   0.0000       0.855821        23.2881 
  46   0.0000       0.855827        23.2882 
  47   0.0000       0.890256        24.2251 
  48   0.0000       0.890273        24.2255 
  49   0.0000       0.897298        24.4167 
  50   0.0000       0.947004        25.7693 
  51   0.0000       0.954412        25.9709 
  52   0.0000       0.954415        25.9709 
  53   0.0000       1.196679        32.5633 
  54   0.0000       1.241721        33.7889 
  55   0.0000       1.241721        33.7890 
  56   0.0000       1.296301        35.2741 
  57   0.0000       1.298900        35.3449 
  58   0.0000       1.387119        37.7454 
  59   0.0000       1.387129        37.7457 
  60   0.0000       1.397114        38.0174 
  61   0.0000       1.397627        38.0314 
  62   0.0000       1.512617        41.1604 
  63   0.0000       1.568009        42.6677 
  64   0.0000       1.568017        42.6679 
  65   0.0000       1.871164        50.9169 
  66   0.0000       2.766232        75.2730 
  67   0.0000       3.487275        94.8936 
  68   0.0000       3.732185       101.5579 
  69   0.0000       3.746898       101.9583 
  70   0.0000       3.751624       102.0869 
  71   0.0000       3.776384       102.7606 
  72   0.0000       3.776402       102.7611 
  73   0.0000       3.823099       104.0318 
  74   0.0000       3.823099       104.0318 
  75   0.0000       3.846396       104.6657 
  76   0.0000       3.846473       104.6678 
  77   0.0000       3.878244       105.5324 
  78   0.0000       3.878264       105.5329 
  79   0.0000       3.935214       107.0826 
  80   0.0000       3.935242       107.0834 
  81   0.0000       3.988255       108.5259 
  82   0.0000       4.061650       110.5231 
  83   0.0000       4.061655       110.5233 
  84   0.0000       4.226001       114.9953 
  85   0.0000       4.464089       121.4740 
  86   0.0000       5.008920       136.2996 
  87   0.0000       5.009355       136.3115 
  88   0.0000       5.012161       136.3878 
  89   0.0000       5.012162       136.3879 
  90   0.0000       5.013576       136.4263 
  91   0.0000       5.013577       136.4264 
  92   0.0000       5.036839       137.0594 
  93   0.0000       5.036857       137.0598 
  94   0.0000       5.151135       140.1695 
  95   0.0000       5.587865       152.0535 
  96   0.0000       5.588021       152.0578 
  97   0.0000       5.599843       152.3795 
  98   0.0000       5.599930       152.3818 
  99   0.0000       6.161740       167.6695 
 100   0.0000      12.347846       336.0020 
 101   0.0000      12.347846       336.0020 
 102   0.0000      12.347871       336.0027 
 103   0.0000      12.348029       336.0069 
 104   0.0000      12.361178       336.3648 
 105   0.0000      12.361198       336.3653 
 106   0.0000      12.401591       337.4645 
 107   0.0000      13.959462       379.8563 
 108   0.0000      13.959481       379.8568 
 109   0.0000      13.970898       380.1675 
 110   0.0000      13.971383       380.1807 
 111   0.0000      13.994917       380.8210 
 112   0.0000      13.994917       380.8211 
 113   0.0000      13.996204       380.8561 
 114   0.0000      13.996331       380.8595 
 115   0.0000      14.001910       381.0114 

                 SPIN DOWN ORBITALS
  NO   OCC          E(Eh)            E(eV) 
   0   1.0000    -298.907261     -8133.6801 
   1   1.0000     -35.288023      -960.2359 
   2   1.0000     -30.738901      -836.4480 
   3   1.0000     -30.720773      -835.9547 
   4   1.0000     -30.720766      -835.9545 
   5   1.0000      -3.802629      -103.4748 
   6   1.0000      -2.421496       -65.8922 
   7   1.0000      -2.406432       -65.4823 
   8   1.0000      -2.406415       -65.4819 
   9   1.0000      -0.233347        -6.3497 
  10   1.0000      -0.178367        -4.8536 
  11   1.0000      -0.178346        -4.8531 
  12   1.0000      -0.142274        -3.8715 
  13   1.0000      -0.142233        -3.8704 
  14   0.0000      -0.132192        -3.5971 
  15   0.0000      -0.103824        -2.8252 
  16   0.0000      -0.017081        -0.4648 
  17   0.0000      -0.017076        -0.4647 
  18   0.0000       0.009938         0.2704 
  19   0.0000       0.019189         0.5222 
  20   0.0000       0.043742         1.1903 
  21   0.0000       0.043746         1.1904 
  22   0.0000       0.051359         1.3975 
  23   0.0000       0.074060         2.0153 
  24   0.0000       0.074061         2.0153 
  25   0.0000       0.081866         2.2277 
  26   0.0000       0.082827         2.2538 
  27   0.0000       0.083502         2.2722 
  28   0.0000       0.123844         3.3700 
  29   0.0000       0.162734         4.4282 
  30   0.0000       0.197395         5.3714 
  31   0.0000       0.212938         5.7943 
  32   0.0000       0.212945         5.7945 
  33   0.0000       0.242726         6.6049 
  34   0.0000       0.242727         6.6049 
  35   0.0000       0.322965         8.7883 
  36   0.0000       0.368259        10.0208 
  37   0.0000       0.368553        10.0288 
  38   0.0000       0.368554        10.0289 
  39   0.0000       0.369168        10.0456 
  40   0.0000       0.460653        12.5350 
  41   0.0000       0.565626        15.3915 
  42   0.0000       0.639092        17.3906 
  43   0.0000       0.714510        19.4428 
  44   0.0000       0.715202        19.4616 
  45   0.0000       0.856426        23.3045 
  46   0.0000       0.856428        23.3046 
  47   0.0000       0.899862        24.4865 
  48   0.0000       0.902084        24.5470 
  49   0.0000       0.902090        24.5471 
  50   0.0000       0.946696        25.7609 
  51   0.0000       0.946698        25.7610 
  52   0.0000       0.954887        25.9838 
  53   0.0000       1.214459        33.0471 
  54   0.0000       1.270989        34.5854 
  55   0.0000       1.270989        34.5854 
  56   0.0000       1.304220        35.4896 
  57   0.0000       1.306601        35.5544 
  58   0.0000       1.397933        38.0397 
  59   0.0000       1.397950        38.0401 
  60   0.0000       1.420825        38.6626 
  61   0.0000       1.421327        38.6763 
  62   0.0000       1.543024        41.9878 
  63   0.0000       1.579349        42.9763 
  64   0.0000       1.579356        42.9765 
  65   0.0000       1.894828        51.5609 
  66   0.0000       2.761396        75.1414 
  67   0.0000       3.515056        95.6495 
  68   0.0000       3.724811       101.3573 
  69   0.0000       3.740596       101.7868 
  70   0.0000       3.773633       102.6858 
  71   0.0000       3.780846       102.8820 
  72   0.0000       3.780859       102.8824 
  73   0.0000       3.847906       104.7068 
  74   0.0000       3.847906       104.7068 
  75   0.0000       3.848904       104.7340 
  76   0.0000       3.848991       104.7364 
  77   0.0000       3.901888       106.1758 
  78   0.0000       3.901908       106.1763 
  79   0.0000       3.953121       107.5699 
  80   0.0000       3.953137       107.5703 
  81   0.0000       4.027892       109.6045 
  82   0.0000       4.066654       110.6593 
  83   0.0000       4.066658       110.6594 
  84   0.0000       4.263845       116.0251 
  85   0.0000       4.480532       121.9215 
  86   0.0000       5.016961       136.5184 
  87   0.0000       5.016961       136.5184 
  88   0.0000       5.022159       136.6599 
  89   0.0000       5.022838       136.6784 
  90   0.0000       5.037843       137.0867 
  91   0.0000       5.037908       137.0885 
  92   0.0000       5.069230       137.9408 
  93   0.0000       5.069241       137.9411 
  94   0.0000       5.215112       141.9104 
  95   0.0000       5.612509       152.7241 
  96   0.0000       5.612519       152.7244 
  97   0.0000       5.615509       152.8058 
  98   0.0000       5.615595       152.8081 
  99   0.0000       6.222726       169.3290 
 100   0.0000      12.361730       336.3798 
 101   0.0000      12.362180       336.3920 
 102   0.0000      12.383231       336.9649 
 103   0.0000      12.383232       336.9649 
 104   0.0000      12.431136       338.2684 
 105   0.0000      12.431158       338.2690 
 106   0.0000      12.506665       340.3237 
 107   0.0000      14.008264       381.1842 
 108   0.0000      14.009472       381.2171 
 109   0.0000      14.014652       381.3581 
 110   0.0000      14.014653       381.3581 
 111   0.0000      14.021607       381.5473 
 112   0.0000      14.021622       381.5477 
 113   0.0000      14.027979       381.7207 
 114   0.0000      14.028119       381.7245 
 115   0.0000      14.076918       383.0524 

                    ********************************
                    * MULLIKEN POPULATION ANALYSIS *
                    ********************************

--------------------------------------------
MULLIKEN ATOMIC CHARGES AND SPIN POPULATIONS
--------------------------------------------
   0 Ni:    0.272279    1.108003
   1 H :   -0.272279   -0.108003
Sum of atomic charges         :   -0.0000000
Sum of atomic spin populations:    1.0000000

-----------------------------------------------------
MULLIKEN REDUCED ORBITAL CHARGES AND SPIN POPULATIONS
-----------------------------------------------------
CHARGE
  0 Nis       :     6.634102  s :     6.634102
      pz      :     4.040130  p :    12.043271
      px      :     4.001571
      py      :     4.001570
      dz2     :     1.057774  d :     9.049036
      dxz     :     1.995828
      dyz     :     1.995830
      dx2y2   :     1.999811
      dxy     :     1.999793
      f0      :     0.000826  f :     0.001253
      f+1     :     0.000113
      f-1     :     0.000113
      f+2     :     0.000098
      f-2     :     0.000103
      f+3     :     0.000000
      f-3     :     0.000000
      g0      :     0.000021  g :     0.000058
      g+1     :     0.000010
      g-1     :     0.000010
      g+2     :     0.000009
      g-2     :     0.000009
      g+3     :     0.000000
      g-3     :     0.000000
      g+4     :     0.000000
      g-4     :     0.000000
  1 H s       :     1.256986  s :     1.256986
      pz      :     0.010493  p :     0.013894
      px      :     0.001701
      py      :     0.001700
      dz2     :    -0.000332  d :     0.001399
      dxz     :     0.000777
      dyz     :     0.000777
      dx2y2   :     0.000081
      dxy     :     0.000096

SPIN
  0 Nis       :     0.220988  s :     0.220988
      pz      :    -0.006435  p :    -0.006541
      px      :    -0.000054
      py      :    -0.000053
      dz2     :     0.892393  d :     0.893549
      dxz     :     0.000487
      dyz     :     0.000487
      dx2y2   :     0.000091
      dxy     :     0.000089
      f0      :    -0.000003  f :    -0.000026
      f+1     :    -0.000004
      f-1     :    -0.000004
      f+2     :    -0.000007
      f-2     :    -0.000007
      f+3     :     0.000000
      f-3     :     0.000000
      g0      :     0.000033  g :     0.000034
      g+1     :     0.000009
      g-1     :     0.000009
      g+2     :    -0.000009
      g-2     :    -0.000009
      g+3     :    -0.000000
      g-3     :    -0.000000
      g+4     :     0.000000
      g-4     :     0.000000
  1 H s       :    -0.108146  s :    -0.108146
      pz      :     0.001113  p :     0.000438
      px      :    -0.000337
      py      :    -0.000337
      dz2     :     0.000057  d :    -0.000296
      dxz     :    -0.000101
      dyz     :    -0.000102
      dx2y2   :    -0.000076
      dxy     :    -0.000074


                     *******************************
                     * LOEWDIN POPULATION ANALYSIS *
                     *******************************

-------------------------------------------
LOEWDIN ATOMIC CHARGES AND SPIN POPULATIONS
-------------------------------------------
   0 Ni:    0.233501    1.046051
   1 H :   -0.233501   -0.046051

----------------------------------------------------
LOEWDIN REDUCED ORBITAL CHARGES AND SPIN POPULATIONS
----------------------------------------------------
CHARGE
  0 Nis       :     6.630726  s :     6.630726
      pz      :     4.097493  p :    12.092357
      px      :     3.997433
      py      :     3.997432
      dz2     :     1.101275  d :     9.036976
      dxz     :     1.969665
      dyz     :     1.969667
      dx2y2   :     1.998192
      dxy     :     1.998176
      f0      :     0.004974  f :     0.006354
      f+1     :     0.000565
      f-1     :     0.000565
      f+2     :     0.000123
      f-2     :     0.000128
      f+3     :     0.000000
      f-3     :     0.000000
      g0      :     0.000050  g :     0.000086
      g+1     :     0.000010
      g-1     :     0.000010
      g+2     :     0.000008
      g-2     :     0.000008
      g+3     :     0.000000
      g-3     :     0.000000
      g+4     :     0.000000
      g-4     :     0.000000
  1 H s       :     1.043680  s :     1.043680
      pz      :     0.076233  p :     0.098506
      px      :     0.011137
      py      :     0.011136
      dz2     :     0.045569  d :     0.091314
      dxz     :     0.021190
      dyz     :     0.021190
      dx2y2   :     0.001676
      dxy     :     0.001688

SPIN
  0 Nis       :     0.199180  s :     0.199180
      pz      :    -0.023661  p :    -0.023811
      px      :    -0.000076
      py      :    -0.000074
      dz2     :     0.869806  d :     0.871102
      dxz     :     0.000535
      dyz     :     0.000534
      dx2y2   :     0.000114
      dxy     :     0.000113
      f0      :    -0.000438  f :    -0.000442
      f+1     :     0.000006
      f-1     :     0.000006
      f+2     :    -0.000008
      f-2     :    -0.000008
      f+3     :     0.000000
      f-3     :     0.000000
      g0      :     0.000025  g :     0.000023
      g+1     :     0.000007
      g-1     :     0.000007
      g+2     :    -0.000008
      g-2     :    -0.000008
      g+3     :    -0.000000
      g-3     :    -0.000000
      g+4     :     0.000000
      g-4     :     0.000000
  1 H s       :    -0.059715  s :    -0.059715
      pz      :     0.012914  p :     0.012183
      px      :    -0.000366
      py      :    -0.000365
      dz2     :     0.001889  d :     0.001481
      dxz     :    -0.000107
      dyz     :    -0.000107
      dx2y2   :    -0.000098
      dxy     :    -0.000096


                      *****************************
                      * MAYER POPULATION ANALYSIS *
                      *****************************

  NA   - Mulliken gross atomic population
  ZA   - Total nuclear charge
  QA   - Mulliken gross atomic charge
  VA   - Mayer's total valence
  BVA  - Mayer's bonded valence
  FA   - Mayer's free valence

  ATOM       NA         ZA         QA         VA         BVA        FA
  0 Ni    27.7277    28.0000     0.2723     1.9043     0.9418     0.9625
  1 H      1.2723     1.0000    -0.2723     0.9547     0.9418     0.0129

  Mayer bond orders larger than 0.100000
B(  0-Ni,  1-H ) :   0.9418 

-------
TIMINGS
-------

Total SCF time: 0 days 0 hours 0 min 5 sec 

Total time                  ....       5.487 sec
Sum of individual times     ....       5.326 sec  ( 97.1%)

Fock matrix formation       ....       4.881 sec  ( 89.0%)
  Split-RI-J                ....       4.125 sec  ( 84.5% of F)
  XC integration            ....       0.499 sec  ( 10.2% of F)
    Basis function eval.    ....       0.049 sec  (  9.8% of XC)
    Density eval.           ....       0.048 sec  (  9.6% of XC)
    XC-Functional eval.     ....       0.016 sec  (  3.2% of XC)
    XC-Potential eval.      ....       0.127 sec  ( 25.4% of XC)
Diagonalization             ....       0.128 sec  (  2.3%)
Density matrix formation    ....       0.020 sec  (  0.4%)
Population analysis         ....       0.006 sec  (  0.1%)
Initial guess               ....       0.119 sec  (  2.2%)
Orbital Transformation      ....       0.000 sec  (  0.0%)
Orbital Orthonormalization  ....       0.000 sec  (  0.0%)
DIIS solution               ....       0.049 sec  (  0.9%)
Grid generation             ....       0.122 sec  (  2.2%)


-------------------------------------------------------------------------------
                          DFT DISPERSION CORRECTION                            
                                                                               
                              DFTD3 V3.1  Rev 1                                
                          USING Becke-Johnson damping                          
-------------------------------------------------------------------------------
The TPSS functional is recognized
Active option DFTDOPT                   ...         4   

molecular C6(AA) [au] = 702.506336 


            DFT-D V3
 parameters
 s6 scaling factor         :     1.0000 
 a1 scaling factor         :     0.4535 
 s8 scaling factor         :     1.9435 
 a2 scaling factor         :     4.4752 
 ad hoc parameters k1-k3   :    16.0000     1.3333    -4.0000 

 Edisp/kcal,au: -0.693284187413  -0.001104818560 
 E6   /kcal   :  -0.305201880 
 E8   /kcal   :  -0.388082308 
 % E8         :  55.977377633 

-------------------------   ----------------
Dispersion correction           -0.001104819
-------------------------   ----------------


-------------------------   --------------------
FINAL SINGLE POINT ENERGY     -1508.925982236414
-------------------------   --------------------



           ************************************************************
           *        Program running with 24 parallel MPI-processes    *
           *              working on a common directory               *
           ************************************************************
------------------------------------------------------------------------------
                         ORCA SCF GRADIENT CALCULATION
------------------------------------------------------------------------------

Gradient of the Kohn-Sham DFT energy:
Kohn-Sham wavefunction type      ... UKS
Hartree-Fock exchange scaling    ...    0.000
Number of operators              ...    2
Number of atoms                  ...    2
Basis set dimensions             ...  116
Integral neglect threshold       ... 2.5e-11
Integral primitive cutoff        ... 2.5e-12

Nuclear repulsion gradient       ... done
One Electron Gradient            ... done
Pre-screening matrix             ... done
RI-J gradient                    ... done
Exchange-correlation gradient    ... done
Dispersion correction            ... done

------------------
CARTESIAN GRADIENT
------------------

   1   Ni  :   -0.000000004    0.000000003   -0.045804202
   2   H   :   -0.000000002    0.000000002    0.045822162

Difference to translation invariance:
           :   -0.0000000051    0.0000000052    0.0000179594

Norm of the cartesian gradient     ...    0.0647896243
RMS gradient                       ...    0.0264502534
MAX gradient                       ...    0.0458221615

-------
TIMINGS
-------

Total SCF gradient time            ...        4.154 sec

One electron gradient       ....       0.063 sec  (  1.5%)
Prescreening matrices       ....       3.349 sec  ( 80.6%)
RI-J Coulomb gradient       ....       0.144 sec  (  3.5%)
XC gradient                 ....       0.040 sec  (  1.0%)
------------------------------------------------------------------------------
                         ORCA GEOMETRY RELAXATION STEP
------------------------------------------------------------------------------

Reading the OPT-File                    .... done
Getting information on internals        .... done
Copying old internal coords+grads       .... done
Making the new internal coordinates     .... (new redundants).... done
Validating the new internal coordinates .... (new redundants).... done
Calculating the B-matrix                .... done
Calculating the G,G- and P matrices     .... done
Transforming gradient to internals      .... done
Projecting the internal gradient        .... done
Number of atoms                         ....   2
Number of internal coordinates          ....   1
Current Energy                          .... -1508.925982236 Eh
Current gradient norm                   ....     0.064789624 Eh/bohr
Maximum allowed component of the step   ....  0.300
Current trust radius                    ....  0.300
Evaluating the initial hessian          ....  (Almloef) done
Projecting the Hessian                  .... done
Forming the augmented Hessian           .... done
Diagonalizing the augmented Hessian     .... done
Last element of RFO vector              ....  0.952553010
Lowest eigenvalues of augmented Hessian:
 -0.014638853
Length of the computed step             ....  0.319533645
Warning: the length of the step is outside the trust region - taking restricted step instead
The input lambda is                     ....    -0.014639
   iter:   1  x=   -0.023136  g=    1.424260 f(x)=     0.012102
   iter:   2  x=   -0.023967  g=    1.198333 f(x)=     0.000997
   iter:   3  x=   -0.023974  g=    1.178860 f(x)=     0.000008
   iter:   4  x=   -0.023974  g=    1.178700 f(x)=     0.000000
   iter:   5  x=   -0.023974  g=    1.178700 f(x)=     0.000000
The output lambda is                    ....    -0.023974 (5 iterations)
The final length of the internal step   ....  0.300000000
Converting the step to cartesian space:
 Initial RMS(Int)=    0.3000000000
Transforming coordinates:
 Iter   0:  RMS(Cart)=    0.0866025404 RMS(Int)=    0.3000000000
 Iter   1:  RMS(Cart)=    0.0000000000 RMS(Int)=    0.0000000000
done
Storing new coordinates                 .... done

                                .--------------------.
          ----------------------|Geometry convergence|-------------------------
          Item                value                   Tolerance       Converged
          ---------------------------------------------------------------------
          RMS gradient        0.0458131818            0.0001000000      NO
          MAX gradient        0.0458131818            0.0003000000      NO
          RMS step            0.3000000000            0.0020000000      NO
          MAX step            0.3000000000            0.0040000000      NO
          ........................................................
          Max(Bonds)      0.1588      Max(Angles)    0.00
          Max(Dihed)        0.00      Max(Improp)    0.00
          ---------------------------------------------------------------------

The optimization has not yet converged - more geometry cycles are needed


    ---------------------------------------------------------------------------
                         Redundant Internal Coordinates
                            (Angstroem and degrees)

        Definition                    Value    dE/dq     Step     New-Value
    ----------------------------------------------------------------------------
     1. B(H   1,Ni  0)                2.0000  0.045813 -0.1588    1.8412   
    ----------------------------------------------------------------------------

         *************************************************************
         *                GEOMETRY OPTIMIZATION CYCLE   2            *
         *************************************************************
---------------------------------
CARTESIAN COORDINATES (ANGSTROEM)
---------------------------------
  Ni     0.000000    0.000000    0.079377
  H      0.000000    0.000000    1.920623

----------------------------
CARTESIAN COORDINATES (A.U.)
----------------------------
  NO LB      ZA    FRAG     MASS         X           Y           Z
   0 Ni   28.0000    0    58.700    0.000000    0.000000    0.150000
   1 H     1.0000    0     1.008    0.000000    0.000000    3.629452

--------------------------------
INTERNAL COORDINATES (ANGSTROEM)
--------------------------------
 Ni     0   0   0     0.000000000000     0.00000000     0.00000000
 H      1   0   0     1.841246837510     0.00000000     0.00000000

---------------------------
INTERNAL COORDINATES (A.U.)
---------------------------
 Ni     0   0   0     0.000000000000     0.00000000     0.00000000
 H      1   0   0     3.479452267843     0.00000000     0.00000000



           ************************************************************
           *        Program running with 24 parallel MPI-processes    *
           *              working on a common directory               *
           ************************************************************
 One Electron integrals                  ... done
 Pre-screening matrix                    ... done


           ************************************************************
           *        Program running with 24 parallel MPI-processes    *
           *              working on a common directory               *
           ************************************************************

Diagonalization of the overlap matrix:
Smallest eigenvalue                        ... 2.915e-04
Time for diagonalization                   ...    0.004 sec
Threshold for overlap eigenvalues          ... 1.000e-08
Number of eigenvalues below threshold      ... 0
Time for construction of square roots      ...    0.002 sec
Total time needed                          ...    0.006 sec

-------------------
DFT GRID GENERATION
-------------------

General Integration Accuracy     IntAcc      ...  4.340
Radial Grid Type                 RadialGrid  ... Gauss-Chebyshev
Angular Grid (max. acc.)         AngularGrid ... Lebedev-110
Angular grid pruning method      GridPruning ... 3 (G Style)
Weight generation scheme         WeightScheme... Becke
Basis function cutoff            BFCut       ...    1.0000e-11
Integration weight cutoff        WCut        ...    1.0000e-14
Grids for H and He will be reduced by one unit

# of grid points (after initial pruning)     ...   3706 (   0.0 sec)
# of grid points (after weights+screening)   ...   3684 (   0.0 sec)
nearest neighbour list constructed           ...    0.0 sec
Grid point re-assignment to atoms done       ...    0.0 sec
Grid point division into batches done        ...    0.0 sec
Reduced shell lists constructed in    0.0 sec

Total number of grid points                  ...     3684
Total number of batches                      ...       58
Average number of points per batch           ...       63
Average number of grid points per atom       ...     1842
Average number of shells per batch           ...    20.25 (59.56%)
Average number of basis functions per batch  ...    56.25 (48.49%)
Average number of large shells per batch     ...    16.50 (81.48%)
Average number of large basis fcns per batch ...    49.50 (88.00%)
Maximum spatial batch extension              ...  18.14, 26.34, 14.81 au
Average spatial batch extension              ...   0.93,  1.22,  0.77 au

Time for grid setup =    0.016 sec

--------------
SCF ITERATIONS
--------------
ITER       Energy         Delta-E        Max-DP      RMS-DP      [F,P]     Damp
               ***  Starting incremental Fock matrix formation  ***
  0  -1508.9397049547   0.000000000000 0.00421393  0.00007496  0.0179739 0.7000
  1  -1508.9398631161  -0.000158161378 0.00373311  0.00006505  0.0124050 0.7000
                               ***Turning on DIIS***
  2  -1508.9399801522  -0.000117036138 0.00956406  0.00016933  0.0076404 0.0000
  3  -1508.9402409779  -0.000260825653 0.00272042  0.00004484  0.0033151 0.0000
  4  -1508.9402829088  -0.000041930943 0.00183383  0.00002587  0.0013341 0.0000
  5  -1508.9402935977  -0.000010688834 0.00107958  0.00001560  0.0015267 0.0000
  6  -1508.9402997849  -0.000006187226 0.00281240  0.00003351  0.0007366 0.0000
  7  -1508.9403075952  -0.000007810327 0.00052608  0.00000801  0.0004062 0.0000
  8  -1508.9403083478  -0.000000752559 0.00025171  0.00000363  0.0001531 0.0000
  9  -1508.9403083480  -0.000000000176 0.00030164  0.00000297  0.0000527 0.0000
 10  -1508.9403084478  -0.000000099840 0.00001412  0.00000013  0.0000417 0.0000
 11  -1508.9403084359   0.000000011877 0.00010992  0.00000098  0.0000425 0.0000
 12  -1508.9403084431  -0.000000007138 0.00016481  0.00000146  0.0000473 0.0000
 13  -1508.9403084613  -0.000000018264 0.00014217  0.00000130  0.0000401 0.0000
 14  -1508.9403084186   0.000000042757 0.00015356  0.00000138  0.0000464 0.0000
 15  -1508.9403083945   0.000000024054 0.00000214  0.00000003  0.0000538 0.0000
 16  -1508.9403083718   0.000000022687 0.00000918  0.00000010  0.0000538 0.0000
 17  -1508.9403083650   0.000000006824 0.00021637  0.00000196  0.0000542 0.0000
 18  -1508.9403082918   0.000000073204 0.00015665  0.00000155  0.0000632 0.0000
 19  -1508.9403082876   0.000000004209 0.00003870  0.00000045  0.0000796 0.0000
               *** Restarting incremental Fock matrix formation ***
                                   *** Resetting DIIS ***
 20  -1508.9403131806  -0.000004892963 0.00046376  0.00000428  0.0000633 0.0000
 21  -1508.9403134393  -0.000000258757 0.00034034  0.00000299  0.0000669 0.0000
 22  -1508.9403134456  -0.000000006280 0.00015857  0.00000138  0.0000797 0.0000
 23  -1508.9403134945  -0.000000048895 0.00056725  0.00000498  0.0000824 0.0000
 24  -1508.9403134695   0.000000025032 0.00024103  0.00000262  0.0000581 0.0000
 25  -1508.9403134639   0.000000005573 0.00004591  0.00000036  0.0000804 0.0000
 26  -1508.9403134925  -0.000000028643 0.00169705  0.00001522  0.0000872 0.0000
 27  -1508.9403134944  -0.000000001910 0.00126999  0.00001110  0.0000362 0.0000
                 **** Energy Check signals convergence ****

               *****************************************************
               *                     SUCCESS                       *
               *           SCF CONVERGED AFTER  28 CYCLES          *
               *****************************************************

Setting up the final grid:

General Integration Accuracy     IntAcc      ...  4.670
Radial Grid Type                 RadialGrid  ... Gauss-Chebyshev
Angular Grid (max. acc.)         AngularGrid ... Lebedev-302
Angular grid pruning method      GridPruning ... 3 (G Style)
Weight generation scheme         WeightScheme... Becke
Basis function cutoff            BFCut       ...    1.0000e-11
Integration weight cutoff        WCut        ...    1.0000e-14
Grids for H and He will be reduced by one unit

# of grid points (after initial pruning)     ...  13058 (   0.0 sec)
# of grid points (after weights+screening)   ...  13029 (   0.0 sec)
nearest neighbour list constructed           ...    0.0 sec
Grid point re-assignment to atoms done       ...    0.0 sec
Grid point division into batches done        ...    0.1 sec
Reduced shell lists constructed in    0.1 sec

Total number of grid points                  ...    13029
Total number of batches                      ...      204
Average number of points per batch           ...       63
Average number of grid points per atom       ...     6514
Average number of shells per batch           ...    16.40 (48.24%)
Average number of basis functions per batch  ...    36.40 (31.38%)
Average number of large shells per batch     ...     9.90 (60.37%)
Average number of large basis fcns per batch ...    22.90 (62.91%)
Maximum spatial batch extension              ...  28.79, 26.18, 17.31 au
Average spatial batch extension              ...   0.92,  0.87,  0.67 au

Final grid set up in    0.1 sec
Final integration                            ... done (   0.1 sec)
Change in XC energy                          ...     0.001993500
Integrated number of electrons               ...    29.000010174
Previous integrated no of electrons          ...    29.001109800
Total Energy       :        -1508.93832000 Eh          -41060.29915 eV
  Last Energy change         ...   -7.5204e-09  Tolerance :   1.0000e-08
  Last MAX-Density change    ...    4.4790e-05  Tolerance :   1.0000e-07
             **** THE GBW FILE WAS UPDATED (43_NiH.gbw) ****
             **** DENSITY FILE WAS UPDATED (43_NiH.scfp) ****
             **** ENERGY FILE WAS UPDATED (43_NiH.en.tmp) ****
----------------------
UHF SPIN CONTAMINATION
----------------------

Warning: in a DFT calculation there is little theoretical justification to 
         calculate <S**2> as in Hartree-Fock theory. We will do it anyways
         but you should keep in mind that the values have only limited relevance

Expectation value of <S**2>     :     0.763005
Ideal value S*(S+1) for S=0.5   :     0.750000
Deviation                       :     0.013005

             **** THE GBW FILE WAS UPDATED (43_NiH.gbw) ****
             **** DENSITY FILE WAS UPDATED (43_NiH.scfp) ****
Total SCF time: 0 days 0 hours 0 min 4 sec 


-------------------------------------------------------------------------------
                          DFT DISPERSION CORRECTION                            
                                                                               
                              DFTD3 V3.1  Rev 1                                
                          USING Becke-Johnson damping                          
-------------------------------------------------------------------------------
-------------------------   ----------------
Dispersion correction           -0.001031524
-------------------------   ----------------


-------------------------   --------------------
FINAL SINGLE POINT ENERGY     -1508.939351525438
-------------------------   --------------------



           ************************************************************
           *        Program running with 24 parallel MPI-processes    *
           *              working on a common directory               *
           ************************************************************
------------------------------------------------------------------------------
                         ORCA SCF GRADIENT CALCULATION
------------------------------------------------------------------------------

Gradient of the Kohn-Sham DFT energy:
Kohn-Sham wavefunction type      ... UKS
Hartree-Fock exchange scaling    ...    0.000
Number of operators              ...    2
Number of atoms                  ...    2
Basis set dimensions             ...  116
Integral neglect threshold       ... 2.5e-11
Integral primitive cutoff        ... 2.5e-12

Nuclear repulsion gradient       ... done
One Electron Gradient            ... done
Pre-screening matrix             ... done
RI-J gradient                    ... done
Exchange-correlation gradient    ... done
Dispersion correction            ... done

------------------
CARTESIAN GRADIENT
------------------

   1   Ni  :   -0.000000004   -0.000000008   -0.042170598
   2   H   :    0.000000000    0.000000001    0.042179845

Difference to translation invariance:
           :   -0.0000000038   -0.0000000077    0.0000092471

Norm of the cartesian gradient     ...    0.0596447702
RMS gradient                       ...    0.0243498755
MAX gradient                       ...    0.0421798448

-------
TIMINGS
-------

Total SCF gradient time            ...        4.160 sec

One electron gradient       ....       0.060 sec  (  1.4%)
Prescreening matrices       ....       3.349 sec  ( 80.5%)
RI-J Coulomb gradient       ....       0.160 sec  (  3.8%)
XC gradient                 ....       0.045 sec  (  1.1%)
------------------------------------------------------------------------------
                         ORCA GEOMETRY RELAXATION STEP
------------------------------------------------------------------------------

Reading the OPT-File                    .... done
Getting information on internals        .... done
Copying old internal coords+grads       .... done
Making the new internal coordinates     .... (new redundants).... done
Validating the new internal coordinates .... (new redundants).... done
Calculating the B-matrix                .... done
Calculating the G,G- and P matrices     .... done
Transforming gradient to internals      .... done
Projecting the internal gradient        .... done
Number of atoms                         ....   2
Number of internal coordinates          ....   1
Current Energy                          .... -1508.939351525 Eh
Current gradient norm                   ....     0.059644770 Eh/bohr
Maximum allowed component of the step   ....  0.300
Current trust radius                    ....  0.300
Updating the Hessian (BFGS)             .... done
Forming the augmented Hessian           .... done
Diagonalizing the augmented Hessian     .... done
Last element of RFO vector              ....  0.755744906
Lowest eigenvalues of augmented Hessian:
 -0.036545564
Length of the computed step             ....  0.866517413
Warning: the length of the step is outside the trust region - taking restricted step instead
The input lambda is                     ....    -0.036546
   iter:   1  x=   -0.057965  g=   30.853505 f(x)=     0.660852
   iter:   2  x=   -0.084299  g=   10.331310 f(x)=     0.272067
   iter:   3  x=   -0.109830  g=    3.967998 f(x)=     0.101308
   iter:   4  x=   -0.124919  g=    1.961235 f(x)=     0.029593
   iter:   5  x=   -0.128325  g=    1.382140 f(x)=     0.004708
   iter:   6  x=   -0.128457  g=    1.284000 f(x)=     0.000170
   iter:   7  x=   -0.128458  g=    1.280378 f(x)=     0.000000
   iter:   8  x=   -0.128458  g=    1.280373 f(x)=     0.000000
   iter:   9  x=   -0.128458  g=    1.280373 f(x)=     0.000000
The output lambda is                    ....    -0.128458 (9 iterations)
The final length of the internal step   ....  0.300000000
Converting the step to cartesian space:
 Initial RMS(Int)=    0.3000000000
Transforming coordinates:
 Iter   0:  RMS(Cart)=    0.0866025404 RMS(Int)=    0.3000000000
 Iter   1:  RMS(Cart)=    0.0000000000 RMS(Int)=    0.0000000000
done
Storing new coordinates                 .... done

                                .--------------------.
          ----------------------|Geometry convergence|-------------------------
          Item                value                   Tolerance       Converged
          ---------------------------------------------------------------------
          Energy change      -0.0133692890            0.0000050000      NO
          RMS gradient        0.0421752212            0.0001000000      NO
          MAX gradient        0.0421752212            0.0003000000      NO
          RMS step            0.3000000000            0.0020000000      NO
          MAX step            0.3000000000            0.0040000000      NO
          ........................................................
          Max(Bonds)      0.1588      Max(Angles)    0.00
          Max(Dihed)        0.00      Max(Improp)    0.00
          ---------------------------------------------------------------------

The optimization has not yet converged - more geometry cycles are needed


    ---------------------------------------------------------------------------
                         Redundant Internal Coordinates
                            (Angstroem and degrees)

        Definition                    Value    dE/dq     Step     New-Value
    ----------------------------------------------------------------------------
     1. B(H   1,Ni  0)                1.8412  0.042175 -0.1588    1.6825   
    ----------------------------------------------------------------------------

         *************************************************************
         *                GEOMETRY OPTIMIZATION CYCLE   3            *
         *************************************************************
---------------------------------
CARTESIAN COORDINATES (ANGSTROEM)
---------------------------------
  Ni     0.000000    0.000000    0.158753
  H      0.000000    0.000000    1.841247

----------------------------
CARTESIAN COORDINATES (A.U.)
----------------------------
  NO LB      ZA    FRAG     MASS         X           Y           Z
   0 Ni   28.0000    0    58.700    0.000000    0.000000    0.300000
   1 H     1.0000    0     1.008    0.000000    0.000000    3.479452

--------------------------------
INTERNAL COORDINATES (ANGSTROEM)
--------------------------------
 Ni     0   0   0     0.000000000000     0.00000000     0.00000000
 H      1   0   0     1.682493675020     0.00000000     0.00000000

---------------------------
INTERNAL COORDINATES (A.U.)
---------------------------
 Ni     0   0   0     0.000000000000     0.00000000     0.00000000
 H      1   0   0     3.179452267843     0.00000000     0.00000000



           ************************************************************
           *        Program running with 24 parallel MPI-processes    *
           *              working on a common directory               *
           ************************************************************
 One Electron integrals                  ... done
 Pre-screening matrix                    ... done


           ************************************************************
           *        Program running with 24 parallel MPI-processes    *
           *              working on a common directory               *
           ************************************************************

Diagonalization of the overlap matrix:
Smallest eigenvalue                        ... 2.142e-04
Time for diagonalization                   ...    0.004 sec
Threshold for overlap eigenvalues          ... 1.000e-08
Number of eigenvalues below threshold      ... 0
Time for construction of square roots      ...    0.002 sec
Total time needed                          ...    0.006 sec

-------------------
DFT GRID GENERATION
-------------------

General Integration Accuracy     IntAcc      ...  4.340
Radial Grid Type                 RadialGrid  ... Gauss-Chebyshev
Angular Grid (max. acc.)         AngularGrid ... Lebedev-110
Angular grid pruning method      GridPruning ... 3 (G Style)
Weight generation scheme         WeightScheme... Becke
Basis function cutoff            BFCut       ...    1.0000e-11
Integration weight cutoff        WCut        ...    1.0000e-14
Grids for H and He will be reduced by one unit

# of grid points (after initial pruning)     ...   3706 (   0.0 sec)
# of grid points (after weights+screening)   ...   3683 (   0.0 sec)
nearest neighbour list constructed           ...    0.0 sec
Grid point re-assignment to atoms done       ...    0.0 sec
Grid point division into batches done        ...    0.0 sec
Reduced shell lists constructed in    0.0 sec

Total number of grid points                  ...     3683
Total number of batches                      ...       59
Average number of points per batch           ...       62
Average number of grid points per atom       ...     1842
Average number of shells per batch           ...    20.25 (59.56%)
Average number of basis functions per batch  ...    56.25 (48.49%)
Average number of large shells per batch     ...    16.50 (81.48%)
Average number of large basis fcns per batch ...    49.50 (88.00%)
Maximum spatial batch extension              ...  34.10, 26.34, 18.50 au
Average spatial batch extension              ...   1.19,  1.20,  0.81 au

Time for grid setup =    0.015 sec

--------------
SCF ITERATIONS
--------------
ITER       Energy         Delta-E        Max-DP      RMS-DP      [F,P]     Damp
               ***  Starting incremental Fock matrix formation  ***
  0  -1508.9509063021   0.000000000000 0.00526444  0.00012652  0.0217964 0.7000
  1  -1508.9511272670  -0.000220964967 0.00456857  0.00010868  0.0152778 0.7000
                               ***Turning on DIIS***
  2  -1508.9513001721  -0.000172905112 0.01259507  0.00028036  0.0098007 0.0000
  3  -1508.9517129225  -0.000412750374 0.00353009  0.00005252  0.0027262 0.0000
  4  -1508.9517601839  -0.000047261396 0.00229726  0.00002972  0.0017353 0.0000
  5  -1508.9517754936  -0.000015309739 0.00128172  0.00001902  0.0019505 0.0000
  6  -1508.9517856997  -0.000010206089 0.00320333  0.00004249  0.0009323 0.0000
  7  -1508.9517964307  -0.000010731000 0.00113964  0.00001327  0.0003511 0.0000
  8  -1508.9517972320  -0.000000801255 0.00298898  0.00002455  0.0001429 0.0000
  9  -1508.9517978146  -0.000000582575 0.00222087  0.00001873  0.0003887 0.0000
 10  -1508.9517973112   0.000000503333 0.00291134  0.00002414  0.0003189 0.0000
 11  -1508.9517970995   0.000000211734 0.00016242  0.00000136  0.0001453 0.0000
 12  -1508.9517970816   0.000000017917 0.00178145  0.00001533  0.0001379 0.0000
 13  -1508.9517970748   0.000000006781 0.00018475  0.00000153  0.0000150 0.0000
 14  -1508.9517971129  -0.000000038114 0.00013674  0.00000116  0.0000213 0.0000
 15  -1508.9517970828   0.000000030148 0.00000641  0.00000007  0.0000256 0.0000
 16  -1508.9517970972  -0.000000014483 0.00003474  0.00000031  0.0000249 0.0000
 17  -1508.9517971107  -0.000000013455 0.00003187  0.00000023  0.0000278 0.0000
 18  -1508.9517971506  -0.000000039862 0.00040256  0.00000311  0.0000213 0.0000
 19  -1508.9517971951  -0.000000044510 0.00042951  0.00000322  0.0000475 0.0000
               *** Restarting incremental Fock matrix formation ***
                                   *** Resetting DIIS ***
 20  -1508.9518000491  -0.000002854022 0.00025028  0.00000302  0.0000708 0.0000
 21  -1508.9518002253  -0.000000176237 0.00027323  0.00000260  0.0000732 0.0000
 22  -1508.9518002521  -0.000000026787 0.00033719  0.00000317  0.0000809 0.0000
 23  -1508.9518002979  -0.000000045786 0.00062001  0.00000587  0.0000774 0.0000
 24  -1508.9518002768   0.000000021075 0.00014312  0.00000179  0.0000449 0.0000
 25  -1508.9518002333   0.000000043510 0.00049196  0.00000491  0.0000528 0.0000
 26  -1508.9518002251   0.000000008265 0.00038562  0.00000394  0.0000198 0.0000
 27  -1508.9518002434  -0.000000018297 0.00012665  0.00000094  0.0000105 0.0000
 28  -1508.9518002523  -0.000000008914 0.00004443  0.00000039  0.0000070 0.0000
 29  -1508.9518002956  -0.000000043375 0.00005407  0.00000040  0.0000099 0.0000
 30  -1508.9518002770   0.000000018658 0.00001860  0.00000024  0.0000086 0.0000
 31  -1508.9518002989  -0.000000021908 0.00009219  0.00000074  0.0000093 0.0000
 32  -1508.9518002975   0.000000001439 0.00003641  0.00000029  0.0000041 0.0000
 33  -1508.9518002819   0.000000015570 0.00004796  0.00000037  0.0000045 0.0000
 34  -1508.9518003155  -0.000000033575 0.00007970  0.00000061  0.0000068 0.0000
 35  -1508.9518003055   0.000000009971 0.00002801  0.00000028  0.0000036 0.0000
 36  -1508.9518002846   0.000000020861 0.00000978  0.00000009  0.0000015 0.0000
 37  -1508.9518002523   0.000000032333 0.00000243  0.00000002  0.0000013 0.0000
 38  -1508.9518002710  -0.000000018727 0.00000573  0.00000006  0.0000011 0.0000
                            ***DIIS convergence achieved***

               *****************************************************
               *                     SUCCESS                       *
               *           SCF CONVERGED AFTER  39 CYCLES          *
               *****************************************************

Setting up the final grid:

General Integration Accuracy     IntAcc      ...  4.670
Radial Grid Type                 RadialGrid  ... Gauss-Chebyshev
Angular Grid (max. acc.)         AngularGrid ... Lebedev-302
Angular grid pruning method      GridPruning ... 3 (G Style)
Weight generation scheme         WeightScheme... Becke
Basis function cutoff            BFCut       ...    1.0000e-11
Integration weight cutoff        WCut        ...    1.0000e-14
Grids for H and He will be reduced by one unit

# of grid points (after initial pruning)     ...  13058 (   0.0 sec)
# of grid points (after weights+screening)   ...  13023 (   0.0 sec)
nearest neighbour list constructed           ...    0.0 sec
Grid point re-assignment to atoms done       ...    0.0 sec
Grid point division into batches done        ...    0.1 sec
Reduced shell lists constructed in    0.1 sec

Total number of grid points                  ...    13023
Total number of batches                      ...      204
Average number of points per batch           ...       63
Average number of grid points per atom       ...     6512
Average number of shells per batch           ...    16.40 (48.24%)
Average number of basis functions per batch  ...    36.40 (31.38%)
Average number of large shells per batch     ...     9.90 (60.37%)
Average number of large basis fcns per batch ...    22.90 (62.91%)
Maximum spatial batch extension              ...  28.79, 26.18, 17.31 au
Average spatial batch extension              ...   0.92,  0.87,  0.67 au

Final grid set up in    0.1 sec
Final integration                            ... done (   0.1 sec)
Change in XC energy                          ...     0.001970600
Integrated number of electrons               ...    29.000006791
Previous integrated no of electrons          ...    29.001656045
Total Energy       :        -1508.94982965 Eh          -41060.61235 eV
  Last Energy change         ...    2.4567e-08  Tolerance :   1.0000e-08
  Last MAX-Density change    ...    6.2917e-06  Tolerance :   1.0000e-07
             **** THE GBW FILE WAS UPDATED (43_NiH.gbw) ****
             **** DENSITY FILE WAS UPDATED (43_NiH.scfp) ****
             **** ENERGY FILE WAS UPDATED (43_NiH.en.tmp) ****
[...]
  39   0.0000       0.374820        10.1994 
  40   0.0000       0.559465        15.2238 
  41   0.0000       0.591488        16.0952 
  42   0.0000       0.722139        19.6504 
  43   0.0000       0.735515        20.0144 
  44   0.0000       0.737488        20.0681 
  45   0.0000       0.863173        23.4881 
  46   0.0000       0.863176        23.4882 
  47   0.0000       0.921077        25.0638 
  48   0.0000       0.921378        25.0720 
  49   0.0000       0.921379        25.0720 
  50   0.0000       1.018379        27.7115 
  51   0.0000       1.018382        27.7116 
  52   0.0000       1.184685        32.2369 
  53   0.0000       1.248137        33.9635 
  54   0.0000       1.248137        33.9635 
  55   0.0000       1.376722        37.4625 
  56   0.0000       1.378073        37.4993 
  57   0.0000       1.389130        37.8002 
  58   0.0000       1.389133        37.8002 
  59   0.0000       1.420219        38.6461 
  60   0.0000       1.421350        38.6769 
  61   0.0000       1.443810        39.2881 
  62   0.0000       1.618688        44.0467 
  63   0.0000       1.883238        51.2455 
  64   0.0000       1.883240        51.2456 
  65   0.0000       2.317279        63.0564 
  66   0.0000       3.031820        82.5000 
  67   0.0000       3.520896        95.8084 
  68   0.0000       3.645592        99.2016 
  69   0.0000       3.645595        99.2017 
  70   0.0000       3.685072       100.2759 
  71   0.0000       3.698121       100.6310 
  72   0.0000       3.763963       102.4226 
  73   0.0000       3.838448       104.4495 
  74   0.0000       3.838448       104.4495 
  75   0.0000       3.899680       106.1157 
  76   0.0000       3.902074       106.1808 
  77   0.0000       3.902080       106.1810 
  78   0.0000       3.902082       106.1810 
  79   0.0000       4.082454       111.0892 
  80   0.0000       4.082456       111.0893 
  81   0.0000       4.115958       112.0009 
  82   0.0000       4.115959       112.0009 
  83   0.0000       4.252019       115.7033 
  84   0.0000       4.272880       116.2710 
  85   0.0000       5.027733       136.8116 
  86   0.0000       5.028004       136.8189 
  87   0.0000       5.028004       136.8189 
  88   0.0000       5.028221       136.8248 
  89   0.0000       5.072677       138.0346 
  90   0.0000       5.073435       138.0552 
  91   0.0000       5.137672       139.8032 
  92   0.0000       5.446188       148.1983 
  93   0.0000       5.446191       148.1984 
  94   0.0000       5.603677       152.4838 
  95   0.0000       5.604414       152.5039 
  96   0.0000       5.758721       156.7028 
  97   0.0000       5.921278       161.1262 
  98   0.0000       5.921283       161.1263 
  99   0.0000       7.391261       201.1264 
 100   0.0000      12.364453       336.4539 
 101   0.0000      12.364453       336.4539 
 102   0.0000      12.382678       336.9498 
 103   0.0000      12.383054       336.9600 
 104   0.0000      12.409890       337.6903 
 105   0.0000      12.409894       337.6904 
 106   0.0000      12.495832       340.0289 
 107   0.0000      14.001462       380.9992 
 108   0.0000      14.002746       381.0341 
 109   0.0000      14.009557       381.2194 
 110   0.0000      14.009557       381.2194 
 111   0.0000      14.012977       381.3125 
 112   0.0000      14.013218       381.3191 
 113   0.0000      14.147587       384.9754 
 114   0.0000      14.147591       384.9755 
 115   0.0000      14.444174       393.0460 

                 SPIN DOWN ORBITALS
  NO   OCC          E(Eh)            E(eV) 
   0   1.0000    -298.893540     -8133.3067 
   1   1.0000     -35.279713      -960.0098 
   2   1.0000     -30.731956      -836.2590 
   3   1.0000     -30.711136      -835.6925 
   4   1.0000     -30.711135      -835.6925 
   5   1.0000      -3.794503      -103.2537 
   6   1.0000      -2.416538       -65.7573 
   7   1.0000      -2.396769       -65.2194 
   8   1.0000      -2.396765       -65.2193 
   9   1.0000      -0.268234        -7.2990 
  10   1.0000      -0.169540        -4.6134 
  11   1.0000      -0.169534        -4.6133 
  12   1.0000      -0.131365        -3.5746 
  13   1.0000      -0.131328        -3.5736 
  14   0.0000      -0.127943        -3.4815 
  15   0.0000      -0.078114        -2.1256 
  16   0.0000      -0.012300        -0.3347 
  17   0.0000      -0.012299        -0.3347 
  18   0.0000       0.013642         0.3712 
  19   0.0000       0.023170         0.6305 
  20   0.0000       0.046090         1.2542 
  21   0.0000       0.046090         1.2542 
  22   0.0000       0.063700         1.7334 
  23   0.0000       0.081210         2.2098 
  24   0.0000       0.081210         2.2098 
  25   0.0000       0.086523         2.3544 
  26   0.0000       0.087139         2.3712 
  27   0.0000       0.087208         2.3731 
  28   0.0000       0.139422         3.7939 
  29   0.0000       0.190183         5.1751 
  30   0.0000       0.214800         5.8450 
  31   0.0000       0.214802         5.8451 
  32   0.0000       0.237756         6.4697 
  33   0.0000       0.275863         7.5066 
  34   0.0000       0.275863         7.5066 
  35   0.0000       0.356023         9.6879 
  36   0.0000       0.375082        10.2065 
  37   0.0000       0.375340        10.2135 
  38   0.0000       0.381432        10.3793 
  39   0.0000       0.381432        10.3793 
  40   0.0000       0.566972        15.4281 
  41   0.0000       0.596014        16.2184 
  42   0.0000       0.729450        19.8493 
  43   0.0000       0.737151        20.0589 
  44   0.0000       0.738885        20.1061 
  45   0.0000       0.874599        23.7990 
  46   0.0000       0.874599        23.7991 
  47   0.0000       0.919940        25.0328 
  48   0.0000       0.919940        25.0328 
  49   0.0000       0.922363        25.0988 
  50   0.0000       1.027664        27.9642 
  51   0.0000       1.027664        27.9642 
  52   0.0000       1.207434        32.8559 
  53   0.0000       1.286341        35.0031 
  54   0.0000       1.286341        35.0031 
  55   0.0000       1.391079        37.8532 
  56   0.0000       1.392755        37.8988 
  57   0.0000       1.401398        38.1340 
  58   0.0000       1.401399        38.1340 
  59   0.0000       1.444183        39.2982 
  60   0.0000       1.444767        39.3141 
  61   0.0000       1.458741        39.6944 
  62   0.0000       1.632288        44.4168 
  63   0.0000       1.891060        51.4584 
  64   0.0000       1.891061        51.4584 
  65   0.0000       2.336947        63.5916 
  66   0.0000       3.039187        82.7005 
  67   0.0000       3.547230        96.5250 
  68   0.0000       3.662657        99.6660 
  69   0.0000       3.662658        99.6660 
  70   0.0000       3.682600       100.2086 
  71   0.0000       3.695405       100.5571 
  72   0.0000       3.792575       103.2012 
  73   0.0000       3.862441       105.1024 
  74   0.0000       3.862441       105.1024 
  75   0.0000       3.902739       106.1989 
  76   0.0000       3.905227       106.2666 
  77   0.0000       3.922039       106.7241 
  78   0.0000       3.922042       106.7242 
  79   0.0000       4.095619       111.4475 
  80   0.0000       4.095621       111.4475 
  81   0.0000       4.126218       112.2801 
  82   0.0000       4.126219       112.2801 
  83   0.0000       4.287820       116.6775 
  84   0.0000       4.293767       116.8393 
  85   0.0000       5.033535       136.9695 
  86   0.0000       5.033535       136.9695 
  87   0.0000       5.055005       137.5537 
  88   0.0000       5.055414       137.5648 
  89   0.0000       5.082976       138.3148 
  90   0.0000       5.084011       138.3430 
  91   0.0000       5.158386       140.3668 
  92   0.0000       5.469340       148.8283 
  93   0.0000       5.469343       148.8284 
  94   0.0000       5.625324       153.0729 
  95   0.0000       5.626128       153.0947 
  96   0.0000       5.815152       158.2383 
  97   0.0000       5.933171       161.4498 
  98   0.0000       5.933175       161.4499 
  99   0.0000       7.428979       202.1528 
 100   0.0000      12.390523       337.1633 
 101   0.0000      12.390523       337.1633 
 102   0.0000      12.393920       337.2557 
 103   0.0000      12.394004       337.2580 
 104   0.0000      12.468625       339.2885 
 105   0.0000      12.468630       339.2887 
 106   0.0000      12.582462       342.3862 
 107   0.0000      14.025513       381.6536 
 108   0.0000      14.025513       381.6536 
 109   0.0000      14.032148       381.8342 
 110   0.0000      14.034078       381.8867 
 111   0.0000      14.038450       382.0056 
 112   0.0000      14.038462       382.0060 
 113   0.0000      14.198706       386.3664 
 114   0.0000      14.198710       386.3665 
 115   0.0000      14.508275       394.7902 

                    ********************************
                    * MULLIKEN POPULATION ANALYSIS *
                    ********************************

--------------------------------------------
MULLIKEN ATOMIC CHARGES AND SPIN POPULATIONS
--------------------------------------------
   0 Ni:   -0.008677    1.020110
   1 H :    0.008677   -0.020110
Sum of atomic charges         :   -0.0000000
Sum of atomic spin populations:    1.0000000

-----------------------------------------------------
MULLIKEN REDUCED ORBITAL CHARGES AND SPIN POPULATIONS
-----------------------------------------------------
CHARGE
  0 Nis       :     6.802640  s :     6.802640
      pz      :     4.108539  p :    12.111240
      px      :     4.001350
      py      :     4.001350
      dz2     :     1.111839  d :     9.092096
      dxz     :     1.990853
      dyz     :     1.990854
      dx2y2   :     1.999206
      dxy     :     1.999345
      f0      :     0.002308  f :     0.002574
      f+1     :     0.000030
      f-1     :     0.000030
      f+2     :     0.000107
      f-2     :     0.000101
      f+3     :     0.000000
      f-3     :     0.000000
      g0      :     0.000074  g :     0.000127
      g+1     :     0.000016
      g-1     :     0.000016
      g+2     :     0.000010
      g-2     :     0.000010
      g+3     :     0.000000
      g-3     :     0.000000
      g+4     :     0.000000
      g-4     :     0.000000
  1 H s       :     0.983925  s :     0.983925
      pz      :    -0.009435  p :     0.004468
      px      :     0.006951
      py      :     0.006951
      dz2     :     0.000109  d :     0.002929
      dxz     :     0.000799
      dyz     :     0.000799
      dx2y2   :     0.000677
      dxy     :     0.000544

SPIN
  0 Nis       :     0.294983  s :     0.294983
      pz      :    -0.009743  p :    -0.009835
      px      :    -0.000046
      py      :    -0.000046
      dz2     :     0.732794  d :     0.735124
      dxz     :     0.000805
      dyz     :     0.000805
      dx2y2   :     0.000359
      dxy     :     0.000362
      f0      :    -0.000185  f :    -0.000210
      f+1     :    -0.000005
      f-1     :    -0.000005
      f+2     :    -0.000007
      f-2     :    -0.000008
      f+3     :     0.000000
      f-3     :     0.000000
      g0      :     0.000055  g :     0.000048
      g+1     :     0.000006
      g-1     :     0.000006
      g+2     :    -0.000010
      g-2     :    -0.000010
      g+3     :     0.000000
      g-3     :     0.000000
      g+4     :     0.000000
      g-4     :     0.000000
  1 H s       :    -0.017653  s :    -0.017653
      pz      :    -0.000815  p :    -0.002238
      px      :    -0.000711
      py      :    -0.000712
      dz2     :     0.000563  d :    -0.000219
      dxz     :    -0.000048
      dyz     :    -0.000048
      dx2y2   :    -0.000342
      dxy     :    -0.000344


                     *******************************
                     * LOEWDIN POPULATION ANALYSIS *
                     *******************************

-------------------------------------------
LOEWDIN ATOMIC CHARGES AND SPIN POPULATIONS
-------------------------------------------
   0 Ni:    0.552433    0.959223
   1 H :   -0.552433    0.040777

----------------------------------------------------
LOEWDIN REDUCED ORBITAL CHARGES AND SPIN POPULATIONS
----------------------------------------------------
CHARGE
  0 Nis       :     6.497621  s :     6.497621
      pz      :     4.071008  p :    12.003749
      px      :     3.966370
      py      :     3.966370
      dz2     :     1.116687  d :     8.930879
      dxz     :     1.919382
      dyz     :     1.919383
      dx2y2   :     1.987670
      dxy     :     1.987758
      f0      :     0.010875  f :     0.014957
      f+1     :     0.001696
      f-1     :     0.001695
      f+2     :     0.000351
      f-2     :     0.000339
      f+3     :     0.000000
      f-3     :     0.000000
      g0      :     0.000262  g :     0.000361
      g+1     :     0.000042
      g-1     :     0.000042
      g+2     :     0.000007
      g-2     :     0.000007
      g+3     :     0.000000
      g-3     :     0.000000
      g+4     :     0.000000
      g-4     :     0.000000
  1 H s       :     1.012465  s :     1.012465
      pz      :     0.167939  p :     0.271371
      px      :     0.051717
      py      :     0.051716
      dz2     :     0.123142  d :     0.268597
      dxz     :     0.060793
      dyz     :     0.060793
      dx2y2   :     0.011972
      dxy     :     0.011896

SPIN
  0 Nis       :     0.270054  s :     0.270054
      pz      :    -0.014965  p :    -0.015243
      px      :    -0.000139
      py      :    -0.000139
      dz2     :     0.703523  d :     0.704869
      dxz     :     0.000506
      dyz     :     0.000505
      dx2y2   :     0.000168
      dxy     :     0.000167
      f0      :    -0.000535  f :    -0.000520
      f+1     :     0.000019
      f-1     :     0.000019
      f+2     :    -0.000011
      f-2     :    -0.000012
      f+3     :     0.000000
      f-3     :     0.000000
      g0      :     0.000058  g :     0.000063
      g+1     :     0.000007
      g-1     :     0.000007
      g+2     :    -0.000005
      g-2     :    -0.000005
      g+3     :     0.000000
      g-3     :     0.000000
      g+4     :     0.000000
      g-4     :     0.000000
  1 H s       :     0.015751  s :     0.015751
      pz      :     0.022484  p :     0.021382
      px      :    -0.000551
      py      :    -0.000551
      dz2     :     0.003630  d :     0.003644
      dxz     :     0.000158
      dyz     :     0.000158
      dx2y2   :    -0.000152
      dxy     :    -0.000150


                      *****************************
                      * MAYER POPULATION ANALYSIS *
                      *****************************

  NA   - Mulliken gross atomic population
  ZA   - Total nuclear charge
  QA   - Mulliken gross atomic charge
  VA   - Mayer's total valence
  BVA  - Mayer's bonded valence
  FA   - Mayer's free valence

  ATOM       NA         ZA         QA         VA         BVA        FA
  0 Ni    28.0087    28.0000    -0.0087     1.9688     1.0644     0.9043
  1 H      0.9913     1.0000     0.0087     1.0686     1.0644     0.0042

  Mayer bond orders larger than 0.100000
B(  0-Ni,  1-H ) :   1.0644 

-------
TIMINGS
-------

Total SCF time: 0 days 0 hours 0 min 1 sec 

Total time                  ....       1.139 sec
Sum of individual times     ....       0.982 sec  ( 86.2%)

Fock matrix formation       ....       0.847 sec  ( 74.4%)
  Split-RI-J                ....       0.577 sec  ( 68.1% of F)
  XC integration            ....       0.088 sec  ( 10.4% of F)
    Basis function eval.    ....       0.010 sec  ( 11.3% of XC)
    Density eval.           ....       0.012 sec  ( 13.5% of XC)
    XC-Functional eval.     ....       0.003 sec  (  3.5% of XC)
    XC-Potential eval.      ....       0.028 sec  ( 31.3% of XC)
Diagonalization             ....       0.017 sec  (  1.5%)
Density matrix formation    ....       0.004 sec  (  0.3%)
Population analysis         ....       0.006 sec  (  0.5%)
Initial guess               ....       0.010 sec  (  0.9%)
Orbital Transformation      ....       0.000 sec  (  0.0%)
Orbital Orthonormalization  ....       0.004 sec  (  0.4%)
DIIS solution               ....       0.004 sec  (  0.4%)
Grid generation             ....       0.094 sec  (  8.3%)


-------------------------------------------------------------------------------
                          DFT DISPERSION CORRECTION                            
                                                                               
                              DFTD3 V3.1  Rev 1                                
                          USING Becke-Johnson damping                          
-------------------------------------------------------------------------------
The TPSS functional is recognized
Active option DFTDOPT                   ...         4   

molecular C6(AA) [au] = 348.701786 


            DFT-D V3
 parameters
 s6 scaling factor         :     1.0000 
 a1 scaling factor         :     0.4535 
 s8 scaling factor         :     1.9435 
 a2 scaling factor         :     4.4752 
 ad hoc parameters k1-k3   :    16.0000     1.3333    -4.0000 

 Edisp/kcal,au: -0.330043641716  -0.000525957966 
 E6   /kcal   :  -0.146382145 
 E8   /kcal   :  -0.183661497 
 % E8         :  55.647639700 

-------------------------   ----------------
Dispersion correction           -0.000525958
-------------------------   ----------------


-------------------------   --------------------
FINAL SINGLE POINT ENERGY     -1508.957070126393
-------------------------   --------------------

                                *** OPTIMIZATION RUN DONE ***

                            ***************************************
                            *     ORCA property calculations      *
                            ***************************************

                                    ---------------------
                                    Active property flags
                                    ---------------------
   (+) Dipole Moment


------------------------------------------------------------------------------
                       ORCA ELECTRIC PROPERTIES CALCULATION
------------------------------------------------------------------------------

Dipole Moment Calculation                       ... on
Quadrupole Moment Calculation                   ... off
Polarizability Calculation                      ... off
GBWName                                         ... 43_NiH.gbw
Electron density file                           ... 43_NiH.scfp
The origin for moment calculation is the CENTER OF MASS  = ( 0.000000,  0.000000  0.526478)

-------------
DIPOLE MOMENT
-------------
                                X             Y             Z
Electronic contribution:     -0.00000       0.00000      -2.46186
Nuclear contribution   :      0.00000       0.00000       1.44028
                        -----------------------------------------
Total Dipole Moment    :     -0.00000       0.00000      -1.02158
                        -----------------------------------------
Magnitude (a.u.)       :      1.02158
Magnitude (Debye)      :      2.59664



--------------------
Rotational spectrum 
--------------------
 
Rotational constants in cm-1:     0.000000     7.629300     7.629300 
Rotational constants in MHz :     0.000000 228720.664008 228720.664008 

 Dipole components along the rotational axes: 
x,y,z [a.u.] :    -1.021576     0.000000    -0.000000 
x,y,z [Debye]:    -2.596640     0.000000    -0.000000 

 

Timings for individual modules:

Sum of individual times         ...       93.492 sec (=   1.558 min)
GTO integral calculation        ...       20.235 sec (=   0.337 min)  21.6 %
SCF iterations                  ...       41.349 sec (=   0.689 min)  44.2 %
SCF Gradient evaluation         ...       31.684 sec (=   0.528 min)  33.9 %
Geometry relaxation             ...        0.223 sec (=   0.004 min)   0.2 %
                             ****ORCA TERMINATED NORMALLY****
TOTAL RUN TIME: 0 days 0 hours 1 minutes 34 seconds 528 msec
