
                                 *****************
                                 * O   R   C   A *
                                 *****************

           --- An Ab Initio, DFT and Semiempirical electronic structure package ---

                  #######################################################
                  #                        -***-                        #
                  #          Department of theory and spectroscopy      #
                  #               Directorship: Frank Neese             #
                  #        Max Planck Institute fuer Kohlenforschung    #
                  #                Kaiser Wilhelm Platz 1               #
                  #                 D-45470 Muelheim/Ruhr               #
                  #                      Germany                        #
                  #                                                     #
                  #                  All rights reserved                #
                  #                        -***-                        #
                  #######################################################


                         Program Version 4.2.0 -  RELEASE  -


 With contributions from (in alphabetic order):
   Daniel Aravena         : Magnetic Suceptibility
   Michael Atanasov       : Ab Initio Ligand Field Theory (pilot matlab implementation)
   Alexander A. Auer      : GIAO ZORA, VPT2
   Ute Becker             : Parallelization
   Giovanni Bistoni       : ED, misc. LED, open-shell LED, HFLED
   Martin Brehm           : Molecular dynamics
   Dmytro Bykov           : SCF Hessian
   Vijay G. Chilkuri      : MRCI spin determinant printing, contributions to CSF-ICE
   Dipayan Datta          : RHF DLPNO-CCSD density
   Achintya Kumar Dutta   : EOM-CC, STEOM-CC
   Dmitry Ganyushin       : Spin-Orbit,Spin-Spin,Magnetic field MRCI
   Miquel Garcia          : C-PCM Hessian, Gaussian charge scheme
   Yang Guo               : DLPNO-NEVPT2, CIM, IAO-localization
   Andreas Hansen         : Spin unrestricted coupled pair/coupled cluster methods
   Benjamin Helmich-Paris : CASSCF linear response (MC-RPA)
   Lee Huntington         : MR-EOM, pCC
   Robert Izsak           : Overlap fitted RIJCOSX, COSX-SCS-MP3, EOM
   Christian Kollmar      : KDIIS, OOCD, Brueckner-CCSD(T), CCSD density
   Simone Kossmann        : Meta GGA functionals, TD-DFT gradient, OOMP2, MP2 Hessian
   Martin Krupicka        : AUTO-CI
   Lucas Lang             : DCDCAS
   Dagmar Lenk            : GEPOL surface, SMD
   Dimitrios Liakos       : Extrapolation schemes; Compound Job, initial MDCI parallelization
   Dimitrios Manganas     : Further ROCIS development; embedding schemes
   Dimitrios Pantazis     : SARC Basis sets
   Taras Petrenko         : DFT Hessian,TD-DFT gradient, ASA, ECA, R-Raman, ABS, FL, XAS/XES, NRVS
   Peter Pinski           : DLPNO-MP2, DLPNO-MP2 Gradient
   Christoph Reimann      : Effective Core Potentials
   Marius Retegan         : Local ZFS, SOC
   Christoph Riplinger    : Optimizer, TS searches, QM/MM, DLPNO-CCSD(T), (RO)-DLPNO pert. Triples
   Tobias Risthaus        : Range-separated hybrids, TD-DFT gradient, RPA, STAB
   Michael Roemelt        : Original ROCIS implementation
   Masaaki Saitow         : Open-shell DLPNO-CCSD energy and density
   Barbara Sandhoefer     : DKH picture change effects
   Avijit Sen             : IP-ROCIS
   Kantharuban Sivalingam : CASSCF convergence, NEVPT2, FIC-MRCI
   Bernardo de Souza      : ESD, SOC TD-DFT
   Georgi Stoychev        : AutoAux, RI-MP2 NMR
   Willem Van den Heuvel  : Paramagnetic NMR
   Boris Wezisla          : Elementary symmetry handling
   Frank Wennmohs         : Technical directorship


 We gratefully acknowledge several colleagues who have allowed us to
 interface, adapt or use parts of their codes:
   Stefan Grimme, W. Hujo, H. Kruse,             : VdW corrections, initial TS optimization,
                  C. Bannwarth                     DFT functionals, gCP, sTDA/sTD-DF
   Ed Valeev, F. Pavosevic, A. Kumar             : LibInt (2-el integral package), F12 methods
   Garnet Chan, S. Sharma, J. Yang, R. Olivares  : DMRG
   Ulf Ekstrom                                   : XCFun DFT Library
   Mihaly Kallay                                 : mrcc  (arbitrary order and MRCC methods)
   Andreas Klamt, Michael Diedenhofen            : otool_cosmo (COSMO solvation model)
   Jiri Pittner, Ondrej Demel                    : Mk-CCSD
   Frank Weinhold                                : gennbo (NPA and NBO analysis)
   Christopher J. Cramer and Donald G. Truhlar   : smd solvation model
   Lars Goerigk                                  : TD-DFT with DH, B97 family of functionals
   V. Asgeirsson, H. Jonsson                     : NEB implementation
   FAccTs GmbH                                   : IRC, NEB, NEB-TS, Multilevel, MM, QM/MM, CI optimization
   S Lehtola, MJT Oliveira, MAL Marques          : LibXC Library


 Your calculation uses the libint2 library for the computation of 2-el integrals
 For citations please refer to: http://libint.valeyev.net

 Your ORCA version has been built with support for libXC version: 4.2.3
 For citations please refer to: https://tddft.org/programs/libxc/

 This ORCA versions uses:
   CBLAS   interface :  Fast vector & matrix operations
   LAPACKE interface :  Fast linear algebra routines
   SCALAPACK package :  Parallel linear algebra routines


Your calculation utilizes the atom-pairwise dispersion correction
with the Becke-Johnson damping scheme (D3BJ)
Cite in your paper:
S.Grimme, S.Ehrlich, L.Goerigk, J Comput Chem, (2011), 32, 1456–1465 
S.Grimme, J.Antony, S.Ehrlich and H.Krieg, J.Chem.Phys., 132, (2010), 154104 
   

----- Orbital basis set information -----
Your calculation utilizes the basis: aug-cc-pVTZ 
    H, B-Ne : Obtained from the ccRepo (grant-hill.group.shef.ac.uk/ccrepo) Feb. 2017
              R. A. Kendall, T. H. Dunning, Jr., R. J. Harrison, J. Chem. Phys. 96, 6796 (1992)
         He : Obtained from the ccRepo (grant-hill.group.shef.ac.uk/ccrepo) Feb. 2017
              D. E. Woon, T. H. Dunning, Jr., J. Chem. Phys. 100, 2975 (1994)
  Li-Be, Na : Obtained from the ccRepo (grant-hill.group.shef.ac.uk/ccrepo) Feb. 2017
              B. P. Prascher, D. E. Woon, K. A. Peterson, T. H. Dunning, Jr., A. K. Wilson, Theor. Chem. Acc. 128, 69 (2011)
         Mg : Obtained from the Peterson Research Group Website (tyr0.chem.wsu.edu/~kipeters) Feb. 2017
              B. P. Prascher, D. E. Woon, K. A. Peterson, T. H. Dunning, Jr., A. K. Wilson, Theor. Chem. Acc. 128, 69 (2011)
      Al-Ar : Obtained from the ccRepo (grant-hill.group.shef.ac.uk/ccrepo) Feb. 2017
              D. E. Woon, T. H. Dunning, Jr., J. Chem. Phys. 98, 1358 (1993)
      Sc-Zn : Obtained from the ccRepo (grant-hill.group.shef.ac.uk/ccrepo) Feb. 2017
              N. B. Balabanov, K. A. Peterson, J. Chem. Phys. 123, 064107 (2005)
              N. B. Balabanov, K. A. Peterson, J. Chem. Phys. 125, 074110 (2006)
      Ga-Kr : Obtained from the ccRepo (grant-hill.group.shef.ac.uk/ccrepo) Feb. 2017
              A. K. Wilson, D. E. Woon, K. A. Peterson, T. H. Dunning, Jr., J. Chem. Phys. 110, 7667 (1999)
     Ag, Au : Obtained from the Peterson Research Group Website (tyr0.chem.wsu.edu/~kipeters) Feb. 2017
              K. A. Peterson, C. Puzzarini, Theor. Chem. Acc. 114, 283 (2005)

----- AuxJ basis set information -----
Your calculation utilizes the auxiliary basis: def2/J
   F. Weigend, Phys. Chem. Chem. Phys. 8, 1057 (2006).

================================================================================
                                        WARNINGS
                       Please study these warnings very carefully!
================================================================================


WARNING: your system is open-shell and RHF/RKS was chosen
  ===> : WILL SWITCH to UHF/UKS


WARNING: Geometry Optimization
  ===> : Switching off AutoStart
         For restart on a previous wavefunction, please use MOREAD

INFO   : the flag for use of LIBINT has been found!

================================================================================
                                       INPUT FILE
================================================================================
NAME = 44_NiF.in
|  1> #
|  2> # 44_NiF tpss/aug-cc-pvtz
|  3> #
|  4> ! tpss d3bj aug-cc-pvtz def2/j opt xyzfile
|  5> 
|  6> *xyz 0 2
|  7> Ni 0.0 0.0 0.0
|  8> F 0.0 0.0 2.0
|  9> *
| 10> 
| 11> %pal
| 12> nprocs 24
| 13> end
| 14> 
| 15> 
| 16>                          ****END OF INPUT****
================================================================================

                       *****************************
                       * Geometry Optimization Run *
                       *****************************

Geometry optimization settings:
Update method            Update   .... BFGS
Choice of coordinates    CoordSys .... Z-matrix Internals
Initial Hessian          InHess   .... Almoef's Model

Convergence Tolerances:
Energy Change            TolE     ....  5.0000e-06 Eh
Max. Gradient            TolMAXG  ....  3.0000e-04 Eh/bohr
RMS Gradient             TolRMSG  ....  1.0000e-04 Eh/bohr
Max. Displacement        TolMAXD  ....  4.0000e-03 bohr
RMS Displacement         TolRMSD  ....  2.0000e-03 bohr
Strict Convergence                ....  False
------------------------------------------------------------------------------
                        ORCA OPTIMIZATION COORDINATE SETUP
------------------------------------------------------------------------------

The optimization will be done in new redundant internal coordinates
Making redundant internal coordinates   ...  (new redundants) done
Evaluating the initial hessian          ...  (Almloef) done
Evaluating the coordinates              ...  done
Calculating the B-matrix                .... done
Calculating the G-matrix                .... done
Diagonalizing the G-matrix              .... done
The first mode is                       ....    0
The number of degrees of freedom        ....    1

    -----------------------------------------------------------------
                    Redundant Internal Coordinates


    -----------------------------------------------------------------
         Definition                    Initial Value    Approx d2E/dq
    -----------------------------------------------------------------
      1. B(F   1,Ni  0)                  2.0000         0.559597   
    -----------------------------------------------------------------

Number of atoms                         .... 2
Number of degrees of freedom            .... 1

         *************************************************************
         *                GEOMETRY OPTIMIZATION CYCLE   1            *
         *************************************************************
---------------------------------
CARTESIAN COORDINATES (ANGSTROEM)
---------------------------------
  Ni     0.000000    0.000000    0.000000
  F      0.000000    0.000000    2.000000

----------------------------
CARTESIAN COORDINATES (A.U.)
----------------------------
  NO LB      ZA    FRAG     MASS         X           Y           Z
   0 Ni   28.0000    0    58.700    0.000000    0.000000    0.000000
   1 F     9.0000    0    18.998    0.000000    0.000000    3.779452

--------------------------------
INTERNAL COORDINATES (ANGSTROEM)
--------------------------------
 Ni     0   0   0     0.000000000000     0.00000000     0.00000000
 F      1   0   0     2.000000000000     0.00000000     0.00000000

---------------------------
INTERNAL COORDINATES (A.U.)
---------------------------
 Ni     0   0   0     0.000000000000     0.00000000     0.00000000
 F      1   0   0     3.779452267843     0.00000000     0.00000000

---------------------
BASIS SET INFORMATION
---------------------
There are 2 groups of distinct atoms

 Group   1 Type Ni  : 116s77p23d3f2g contracted to 8s7p5d3f2g pattern {19191919191911/151515151511/77711/111/11}
 Group   2 Type F   : 19s6p3d2f contracted to 5s4p3d2f pattern {88111/3111/111/11}

Atom   0Ni   basis set group =>   1
Atom   1F    basis set group =>   2
---------------------------------
AUXILIARY/J BASIS SET INFORMATION
---------------------------------
There are 2 groups of distinct atoms

 Group   1 Type Ni  : 19s5p5d3f3g contracted to 8s5p5d2f3g pattern {121111111/11111/11111/21/111}
 Group   2 Type F   : 12s5p4d2f1g contracted to 6s4p3d1f1g pattern {711111/2111/211/2/1}

Atom   0Ni   basis set group =>   1
Atom   1F    basis set group =>   2


           ************************************************************
           *        Program running with 24 parallel MPI-processes    *
           *              working on a common directory               *
           ************************************************************
------------------------------------------------------------------------------
                           ORCA GTO INTEGRAL CALCULATION
                           -- RI-GTO INTEGRALS CHOSEN --
------------------------------------------------------------------------------

                         BASIS SET STATISTICS AND STARTUP INFO

Gaussian basis set:
 # of primitive gaussian shells          ...  251
 # of primitive gaussian functions       ...  567
 # of contracted shells                  ...   39
 # of contracted basis functions         ...  139
 Highest angular momentum                ...    4
 Maximum contraction depth               ...   19
Auxiliary gaussian basis set:
 # of primitive gaussian shells          ...   59
 # of primitive gaussian functions       ...  177
 # of contracted shells                  ...   38
 # of contracted aux-basis functions     ...  138
 Highest angular momentum                ...    4
 Maximum contraction depth               ...   12
Ratio of auxiliary to basis functions    ...  0.99
Integral package used                  ... LIBINT
 One Electron integrals                  ... done
 Ordering auxiliary basis shells         ... done
 Integral threshhold             Thresh  ...  2.500e-11
 Primitive cut-off               TCut    ...  2.500e-12
 Pre-screening matrix                    ... done
 Shell pair data                         ... 
 Ordering of the shell pairs             ... done (   0.000 sec) 780 of 780 pairs
 Determination of significant pairs      ... done (   0.000 sec)
 Creation of shell pair data             ... done (   0.001 sec)
 Storage of shell pair data              ... done (   0.042 sec)
 Shell pair data done in (   0.043 sec)
 Computing two index integrals           ... done
 Cholesky decomposition of the V-matrix  ... done


Timings:
 Total evaluation time                   ...   2.214 sec (  0.037 min)
 One electron matrix time                ...   0.044 sec (  0.001 min) =  2.0%
 Schwartz matrix evaluation time         ...   2.093 sec (  0.035 min) = 94.5%
 Two index repulsion integral time       ...   0.001 sec (  0.000 min) =  0.0%
 Cholesky decomposition of V             ...   0.001 sec (  0.000 min) =  0.0%
 Three index repulsion integral time     ...   0.000 sec (  0.000 min) =  0.0%



           ************************************************************
           *        Program running with 24 parallel MPI-processes    *
           *              working on a common directory               *
           ************************************************************
-------------------------------------------------------------------------------
                                 ORCA SCF
-------------------------------------------------------------------------------

------------
SCF SETTINGS
------------
Hamiltonian:
 Density Functional     Method          .... DFT(GTOs)
 Exchange Functional    Exchange        .... TPSS
 Correlation Functional Correlation     .... TPSS
 LDA part of GGA corr.  LDAOpt          .... PW91-LDA
 Gradients option       PostSCFGGA      .... off
   Density functional embedding theory  .... OFF
   NL short-range parameter             ....  5.000000
 RI-approximation to the Coulomb term is turned on
   Number of auxiliary basis functions  .... 138


General Settings:
 Integral files         IntName         .... 44_NiF
 Hartree-Fock type      HFTyp           .... UHF
 Total Charge           Charge          ....    0
 Multiplicity           Mult            ....    2
 Number of Electrons    NEL             ....   37
 Basis Dimension        Dim             ....  139
 Nuclear Repulsion      ENuc            ....     66.6763282458 Eh

Convergence Acceleration:
 DIIS                   CNVDIIS         .... on
   Start iteration      DIISMaxIt       ....    12
   Startup error        DIISStart       ....  0.200000
   # of expansion vecs  DIISMaxEq       ....     5
   Bias factor          DIISBfac        ....   1.050
   Max. coefficient     DIISMaxC        ....  10.000
 Newton-Raphson         CNVNR           .... off
 SOSCF                  CNVSOSCF        .... off
 Level Shifting         CNVShift        .... on
   Level shift para.    LevelShift      ....    0.2500
   Turn off err/grad.   ShiftErr        ....    0.0010
 Zerner damping         CNVZerner       .... off
 Static damping         CNVDamp         .... on
   Fraction old density DampFac         ....    0.7000
   Max. Damping (<1)    DampMax         ....    0.9800
   Min. Damping (>=0)   DampMin         ....    0.0000
   Turn off err/grad.   DampErr         ....    0.1000
 Fernandez-Rico         CNVRico         .... off

SCF Procedure:
 Maximum # iterations   MaxIter         ....   125
 SCF integral mode      SCFMode         .... Direct
   Integral package                     .... LIBINT
 Reset frequency        DirectResetFreq ....    20
 Integral Threshold     Thresh          ....  2.500e-11 Eh
 Primitive CutOff       TCut            ....  2.500e-12 Eh

Convergence Tolerance:
 Convergence Check Mode ConvCheckMode   .... Total+1el-Energy
 Convergence forced     ConvForced      .... 0
 Energy Change          TolE            ....  1.000e-08 Eh
 1-El. energy change                    ....  1.000e-05 Eh
 DIIS Error             TolErr          ....  5.000e-07


Diagonalization of the overlap matrix:
Smallest eigenvalue                        ... 4.140e-04
Time for diagonalization                   ...    0.006 sec
Threshold for overlap eigenvalues          ... 1.000e-08
Number of eigenvalues below threshold      ... 0
Time for construction of square roots      ...    0.002 sec
Total time needed                          ...    0.008 sec

-------------------
DFT GRID GENERATION
-------------------

General Integration Accuracy     IntAcc      ...  4.340
Radial Grid Type                 RadialGrid  ... Gauss-Chebyshev
Angular Grid (max. acc.)         AngularGrid ... Lebedev-110
Angular grid pruning method      GridPruning ... 3 (G Style)
Weight generation scheme         WeightScheme... Becke
Basis function cutoff            BFCut       ...    1.0000e-11
Integration weight cutoff        WCut        ...    1.0000e-14
Grids for H and He will be reduced by one unit

# of grid points (after initial pruning)     ...   4652 (   0.0 sec)
# of grid points (after weights+screening)   ...   4629 (   0.0 sec)
nearest neighbour list constructed           ...    0.0 sec
Grid point re-assignment to atoms done       ...    0.0 sec
Grid point division into batches done        ...    0.0 sec
Reduced shell lists constructed in    0.0 sec

Total number of grid points                  ...     4629
Total number of batches                      ...       74
Average number of points per batch           ...       62
Average number of grid points per atom       ...     2314
Average number of shells per batch           ...    20.80 (53.33%)
Average number of basis functions per batch  ...    59.20 (42.59%)
Average number of large shells per batch     ...    16.00 (76.92%)
Average number of large basis fcns per batch ...    45.60 (77.03%)
Maximum spatial batch extension              ...  17.39, 26.34, 14.81 au
Average spatial batch extension              ...   0.91,  1.20,  0.80 au

Time for grid setup =    0.035 sec

------------------------------
INITIAL GUESS: MODEL POTENTIAL
------------------------------
Loading Hartree-Fock densities                     ... done
Calculating cut-offs                               ... done
Setting up the integral package                    ... done
Initializing the effective Hamiltonian             ... done
Starting the Coulomb interaction                   ... done (   0.0 sec)
Reading the grid                                   ... done
Mapping shells                                     ... done
Starting the XC term evaluation                    ... done (   0.0 sec)
  promolecular density results
     # of electrons  =     37.000596553
     EX              =    -71.454154052
     EC              =     -1.575954086
     EX+EC           =    -73.030108138
Transforming the Hamiltonian                       ... done (   0.0 sec)
Diagonalizing the Hamiltonian                      ... done (   0.0 sec)
Back transforming the eigenvectors                 ... done (   0.0 sec)
Now organizing SCF variables                       ... done
                      ------------------
                      INITIAL GUESS DONE (   0.2 sec)
                      ------------------
--------------
SCF ITERATIONS
--------------
ITER       Energy         Delta-E        Max-DP      RMS-DP      [F,P]     Damp
               ***  Starting incremental Fock matrix formation  ***
  0  -1608.1465569421   0.000000000000 0.03128556  0.00092231  0.3021546 0.7000
  1  -1608.2112590015  -0.064702059355 0.01701314  0.00041262  0.0542499 0.7000
                               ***Turning on DIIS***
  2  -1608.2247265706  -0.013467569092 0.02439551  0.00058369  0.0483899 0.0000
  3  -1608.2689760891  -0.044249518577 0.01339620  0.00037901  0.0615632 0.0000
  4  -1608.2713054464  -0.002329357250 0.00482899  0.00013058  0.0624297 0.0000
  5  -1608.2734703073  -0.002164860883 0.00328137  0.00006882  0.0180027 0.0000
  6  -1608.2737686024  -0.000298295164 0.00111847  0.00002352  0.0038237 0.0000
  7  -1608.2737880996  -0.000019497202 0.00039993  0.00000833  0.0012158 0.0000
  8  -1608.2737893712  -0.000001271568 0.00052409  0.00000738  0.0002564 0.0000
  9  -1608.2737882247   0.000001146504 0.00008356  0.00000124  0.0002808 0.0000
 10  -1608.2737884261  -0.000000201434 0.00003496  0.00000059  0.0000501 0.0000
 11  -1608.2737884224   0.000000003746 0.00002044  0.00000036  0.0000510 0.0000
 12  -1608.2737884421  -0.000000019673 0.00000810  0.00000016  0.0000030 0.0000
 13  -1608.2737884708  -0.000000028748 0.00000160  0.00000003  0.0000026 0.0000
                 **** Energy Check signals convergence ****

               *****************************************************
               *                     SUCCESS                       *
               *           SCF CONVERGED AFTER  14 CYCLES          *
               *****************************************************

Setting up the final grid:

General Integration Accuracy     IntAcc      ...  4.670
Radial Grid Type                 RadialGrid  ... Gauss-Chebyshev
Angular Grid (max. acc.)         AngularGrid ... Lebedev-302
Angular grid pruning method      GridPruning ... 3 (G Style)
Weight generation scheme         WeightScheme... Becke
Basis function cutoff            BFCut       ...    1.0000e-11
Integration weight cutoff        WCut        ...    1.0000e-14
Grids for H and He will be reduced by one unit

# of grid points (after initial pruning)     ...  15936 (   0.0 sec)
# of grid points (after weights+screening)   ...  15894 (   0.0 sec)
nearest neighbour list constructed           ...    0.0 sec
Grid point re-assignment to atoms done       ...    0.0 sec
Grid point division into batches done        ...    0.1 sec
Reduced shell lists constructed in    0.1 sec

Total number of grid points                  ...    15894
Total number of batches                      ...      250
Average number of points per batch           ...       63
Average number of grid points per atom       ...     7947
Average number of shells per batch           ...    16.00 (41.03%)
Average number of basis functions per batch  ...    37.33 (26.86%)
Average number of large shells per batch     ...     8.92 (55.73%)
Average number of large basis fcns per batch ...    20.25 (54.24%)
Maximum spatial batch extension              ...  22.45, 25.48, 16.11 au
Average spatial batch extension              ...   0.79,  0.82,  0.61 au

Final grid set up in    0.1 sec
Final integration                            ... done (   0.0 sec)
Change in XC energy                          ...     0.001802124
Integrated number of electrons               ...    36.999998283
Previous integrated no of electrons          ...    36.999735960

----------------
TOTAL SCF ENERGY
----------------

Total Energy       :        -1608.27198634 Eh          -43763.30563 eV

Components:
Nuclear Repulsion  :           66.67632825 Eh            1814.35513 eV
Electronic Energy  :        -1674.94831459 Eh          -45577.66076 eV
One Electron Energy:        -2370.56038068 Eh          -64506.22739 eV
Two Electron Energy:          695.61206609 Eh           18928.56663 eV

Virial components:
Potential Energy   :        -3213.76794025 Eh          -87451.07158 eV
Kinetic Energy     :         1605.49595391 Eh           43687.76595 eV
Virial Ratio       :            2.00172908


DFT components:
N(Alpha)           :       18.999999109827 electrons
N(Beta)            :       17.999999173581 electrons
N(Total)           :       36.999998283408 electrons
E(X)               :      -72.121078725235 Eh       
E(C)               :       -1.596006530566 Eh       
E(XC)              :      -73.717085255802 Eh       
DFET-embed. en.    :        0.000000000000 Eh       

---------------
SCF CONVERGENCE
---------------

  Last Energy change         ...    5.1643e-09  Tolerance :   1.0000e-08
  Last MAX-Density change    ...    2.0093e-06  Tolerance :   1.0000e-07
  Last RMS-Density change    ...    3.9678e-08  Tolerance :   5.0000e-09
  Last DIIS Error            ...    9.1421e-07  Tolerance :   5.0000e-07

             **** THE GBW FILE WAS UPDATED (44_NiF.gbw) ****
             **** DENSITY FILE WAS UPDATED (44_NiF.scfp) ****
             **** ENERGY FILE WAS UPDATED (44_NiF.en.tmp) ****
----------------------
UHF SPIN CONTAMINATION
----------------------

Warning: in a DFT calculation there is little theoretical justification to 
         calculate <S**2> as in Hartree-Fock theory. We will do it anyways
         but you should keep in mind that the values have only limited relevance

Expectation value of <S**2>     :     0.752623
Ideal value S*(S+1) for S=0.5   :     0.750000
Deviation                       :     0.002623

             **** THE GBW FILE WAS UPDATED (44_NiF.gbw) ****
             **** DENSITY FILE WAS UPDATED (44_NiF.scfp) ****
----------------
ORBITAL ENERGIES
----------------
                 SPIN UP ORBITALS
  NO   OCC          E(Eh)            E(eV) 
   0   1.0000    -298.930036     -8134.2998 
   1   1.0000     -35.323040      -961.1888 
   2   1.0000     -30.777899      -837.5092 
   3   1.0000     -30.749378      -836.7331 
   4   1.0000     -30.749378      -836.7331 
   5   1.0000     -24.301479      -661.2769 
   6   1.0000      -3.863615      -105.1343 
   7   1.0000      -2.514339       -68.4187 
   8   1.0000      -2.451462       -66.7077 
   9   1.0000      -2.451462       -66.7077 
  10   1.0000      -0.958907       -26.0932 
  11   1.0000      -0.307363        -8.3638 
  12   1.0000      -0.260482        -7.0881 
  13   1.0000      -0.260482        -7.0881 
  14   1.0000      -0.233699        -6.3593 
  15   1.0000      -0.200221        -5.4483 
  16   1.0000      -0.200221        -5.4483 
  17   1.0000      -0.192057        -5.2261 
  18   1.0000      -0.191995        -5.2245 
  19   0.0000      -0.147244        -4.0067 
  20   0.0000      -0.023363        -0.6357 
  21   0.0000      -0.023363        -0.6357 
  22   0.0000       0.002453         0.0667 
  23   0.0000       0.012777         0.3477 
  24   0.0000       0.039400         1.0721 
  25   0.0000       0.039400         1.0721 
  26   0.0000       0.060852         1.6559 
  27   0.0000       0.077608         2.1118 
  28   0.0000       0.077693         2.1141 
  29   0.0000       0.083494         2.2720 
  30   0.0000       0.083494         2.2720 
  31   0.0000       0.093640         2.5481 
  32   0.0000       0.119561         3.2534 
  33   0.0000       0.198527         5.4022 
  34   0.0000       0.198527         5.4022 
  35   0.0000       0.212453         5.7811 
  36   0.0000       0.243585         6.6283 
  37   0.0000       0.246379         6.7043 
  38   0.0000       0.246379         6.7043 
  39   0.0000       0.348356         9.4792 
  40   0.0000       0.348738         9.4897 
  41   0.0000       0.359798         9.7906 
  42   0.0000       0.359798         9.7906 
  43   0.0000       0.387804        10.5527 
  44   0.0000       0.472080        12.8459 
  45   0.0000       0.611437        16.6380 
  46   0.0000       0.771146        20.9840 
  47   0.0000       0.771987        21.0068 
  48   0.0000       0.846370        23.0309 
  49   0.0000       0.854023        23.2392 
  50   0.0000       0.854023        23.2392 
  51   0.0000       0.900912        24.5151 
  52   0.0000       0.900912        24.5151 
  53   0.0000       1.005535        27.3620 
  54   0.0000       1.039976        28.2992 
  55   0.0000       1.039976        28.2992 
  56   0.0000       1.223544        33.2943 
  57   0.0000       1.223544        33.2943 
  58   0.0000       1.261217        34.3195 
  59   0.0000       1.275551        34.7095 
  60   0.0000       1.276193        34.7270 
  61   0.0000       1.356086        36.9010 
  62   0.0000       1.356086        36.9010 
  63   0.0000       1.375575        37.4313 
  64   0.0000       1.375886        37.4398 
  65   0.0000       1.459722        39.7211 
  66   0.0000       1.570865        42.7454 
  67   0.0000       1.580489        43.0073 
  68   0.0000       1.580489        43.0073 
  69   0.0000       2.211294        60.1724 
  70   0.0000       2.609077        70.9966 
  71   0.0000       2.612006        71.0763 
  72   0.0000       2.653844        72.2148 
  73   0.0000       2.653844        72.2148 
  74   0.0000       2.688704        73.1633 
  75   0.0000       2.688704        73.1633 
  76   0.0000       2.738458        74.5172 
  77   0.0000       2.745506        74.7090 
  78   0.0000       2.782013        75.7024 
  79   0.0000       3.050902        83.0193 
  80   0.0000       3.050902        83.0193 
  81   0.0000       3.254552        88.5609 
  82   0.0000       3.537012        96.2470 
  83   0.0000       3.799514       103.3900 
  84   0.0000       3.799514       103.3900 
  85   0.0000       3.840427       104.5033 
  86   0.0000       3.840568       104.5072 
  87   0.0000       3.857173       104.9590 
  88   0.0000       3.857173       104.9590 
  89   0.0000       3.933646       107.0399 
  90   0.0000       3.933646       107.0399 
  91   0.0000       4.026240       109.5596 
  92   0.0000       4.230151       115.1082 
  93   0.0000       4.803180       130.7012 
  94   0.0000       4.803180       130.7012 
  95   0.0000       4.983488       135.6076 
  96   0.0000       4.983852       135.6175 
  97   0.0000       4.985732       135.6687 
  98   0.0000       4.985732       135.6687 
  99   0.0000       4.996844       135.9710 
 100   0.0000       4.997591       135.9914 
 101   0.0000       5.116711       139.2328 
 102   0.0000       5.128216       139.5459 
 103   0.0000       5.128216       139.5459 
 104   0.0000       5.205307       141.6436 
 105   0.0000       5.567441       151.4978 
 106   0.0000       5.567483       151.4989 
 107   0.0000       5.691400       154.8709 
 108   0.0000       5.691400       154.8709 
 109   0.0000       6.386793       173.7935 
 110   0.0000       8.410973       228.8742 
 111   0.0000       8.410973       228.8742 
 112   0.0000       8.415879       229.0077 
 113   0.0000       8.448765       229.9026 
 114   0.0000       8.646204       235.2752 
 115   0.0000       8.646204       235.2752 
 116   0.0000       8.752665       238.1721 
 117   0.0000       8.754919       238.2335 
 118   0.0000       8.782912       238.9952 
 119   0.0000       8.846189       240.7170 
 120   0.0000       8.846189       240.7170 
 121   0.0000       8.964287       243.9307 
 122   0.0000      11.995291       326.4085 
 123   0.0000      12.326421       335.4190 
 124   0.0000      12.326421       335.4190 
 125   0.0000      12.334484       335.6384 
 126   0.0000      12.334531       335.6396 
 127   0.0000      12.356383       336.2343 
 128   0.0000      12.356383       336.2343 
 129   0.0000      12.399712       337.4133 
 130   0.0000      13.956085       379.7644 
 131   0.0000      13.956802       379.7839 
 132   0.0000      13.971682       380.1888 
 133   0.0000      13.971682       380.1888 
 134   0.0000      13.972330       380.2064 
 135   0.0000      13.972518       380.2115 
 136   0.0000      14.015490       381.3809 
 137   0.0000      14.015490       381.3809 
 138   0.0000      14.198942       386.3728 

                 SPIN DOWN ORBITALS
  NO   OCC          E(Eh)            E(eV) 
   0   1.0000    -298.929710     -8134.2909 
   1   1.0000     -35.306845      -960.7481 
   2   1.0000     -30.756649      -836.9310 
   3   1.0000     -30.740300      -836.4861 
   4   1.0000     -30.740300      -836.4861 
   5   1.0000     -24.301442      -661.2758 
   6   1.0000      -3.824591      -104.0724 
   7   1.0000      -2.443121       -66.4807 
   8   1.0000      -2.429062       -66.0981 
   9   1.0000      -2.429062       -66.0981 
  10   1.0000      -0.958863       -26.0920 
  11   1.0000      -0.294343        -8.0095 
  12   1.0000      -0.258971        -7.0470 
  13   1.0000      -0.258971        -7.0470 
  14   1.0000      -0.191125        -5.2008 
  15   1.0000      -0.191125        -5.2008 
  16   1.0000      -0.165476        -4.5028 
  17   1.0000      -0.165457        -4.5023 
  18   0.0000      -0.154082        -4.1928 
  19   0.0000      -0.126868        -3.4523 
  20   0.0000      -0.017497        -0.4761 
  21   0.0000      -0.017497        -0.4761 
  22   0.0000       0.004783         0.1302 
  23   0.0000       0.015003         0.4083 
  24   0.0000       0.042209         1.1486 
  25   0.0000       0.042209         1.1486 
  26   0.0000       0.065074         1.7707 
  27   0.0000       0.081069         2.2060 
  28   0.0000       0.081126         2.2075 
  29   0.0000       0.085039         2.3140 
  30   0.0000       0.085039         2.3140 
  31   0.0000       0.095385         2.5956 
  32   0.0000       0.123710         3.3663 
  33   0.0000       0.207276         5.6403 
  34   0.0000       0.207276         5.6403 
  35   0.0000       0.215330         5.8594 
  36   0.0000       0.246924         6.7191 
  37   0.0000       0.246924         6.7191 
  38   0.0000       0.249368         6.7856 
  39   0.0000       0.357294         9.7225 
  40   0.0000       0.357673         9.7328 
  41   0.0000       0.362943         9.8762 
  42   0.0000       0.362943         9.8762 
  43   0.0000       0.392424        10.6784 
  44   0.0000       0.479825        13.0567 
  45   0.0000       0.620152        16.8752 
  46   0.0000       0.771898        21.0044 
  47   0.0000       0.772746        21.0275 
  48   0.0000       0.854508        23.2524 
  49   0.0000       0.860247        23.4085 
  50   0.0000       0.860247        23.4085 
  51   0.0000       0.911185        24.7946 
  52   0.0000       0.911185        24.7946 
  53   0.0000       1.012316        27.5465 
  54   0.0000       1.041129        28.3306 
  55   0.0000       1.041129        28.3306 
  56   0.0000       1.249332        33.9961 
  57   0.0000       1.249332        33.9961 
  58   0.0000       1.280346        34.8400 
  59   0.0000       1.280966        34.8569 
  60   0.0000       1.291520        35.1440 
  61   0.0000       1.363899        37.1136 
  62   0.0000       1.363899        37.1136 
  63   0.0000       1.398068        38.0434 
  64   0.0000       1.398403        38.0525 
  65   0.0000       1.472589        40.0712 
  66   0.0000       1.584218        43.1088 
  67   0.0000       1.589984        43.2657 
  68   0.0000       1.589984        43.2657 
  69   0.0000       2.223808        60.5129 
  70   0.0000       2.609058        70.9961 
  71   0.0000       2.612116        71.0793 
  72   0.0000       2.654714        72.2384 
  73   0.0000       2.654714        72.2384 
  74   0.0000       2.688731        73.1641 
  75   0.0000       2.688731        73.1641 
  76   0.0000       2.739224        74.5381 
  77   0.0000       2.746314        74.7310 
  78   0.0000       2.789389        75.9031 
  79   0.0000       3.053309        83.0848 
  80   0.0000       3.053309        83.0848 
  81   0.0000       3.265350        88.8547 
  82   0.0000       3.564671        96.9996 
  83   0.0000       3.823651       104.0468 
  84   0.0000       3.823651       104.0468 
  85   0.0000       3.842924       104.5713 
  86   0.0000       3.843102       104.5761 
  87   0.0000       3.882451       105.6469 
  88   0.0000       3.882451       105.6469 
  89   0.0000       3.960403       107.7681 
  90   0.0000       3.960403       107.7681 
  91   0.0000       4.079662       111.0132 
  92   0.0000       4.263570       116.0176 
  93   0.0000       4.804643       130.7410 
  94   0.0000       4.804643       130.7410 
  95   0.0000       4.988651       135.7481 
  96   0.0000       4.988651       135.7481 
  97   0.0000       5.008638       136.2920 
  98   0.0000       5.009266       136.3091 
  99   0.0000       5.009554       136.3169 
 100   0.0000       5.009609       136.3184 
 101   0.0000       5.148696       140.1031 
 102   0.0000       5.158845       140.3793 
 103   0.0000       5.158845       140.3793 
 104   0.0000       5.238879       142.5571 
 105   0.0000       5.591595       152.1550 
 106   0.0000       5.591691       152.1576 
 107   0.0000       5.704643       155.2312 
 108   0.0000       5.704643       155.2312 
 109   0.0000       6.440974       175.2678 
 110   0.0000       8.410893       228.8720 
 111   0.0000       8.410893       228.8720 
 112   0.0000       8.416182       229.0160 
 113   0.0000       8.448943       229.9074 
 114   0.0000       8.647060       235.2985 
 115   0.0000       8.647060       235.2985 
 116   0.0000       8.752479       238.1671 
 117   0.0000       8.754714       238.2279 
 118   0.0000       8.784291       239.0327 
 119   0.0000       8.846640       240.7293 
 120   0.0000       8.846640       240.7293 
 121   0.0000       8.966189       243.9824 
 122   0.0000      12.000671       326.5549 
 123   0.0000      12.348404       336.0172 
 124   0.0000      12.348644       336.0237 
 125   0.0000      12.360808       336.3547 
 126   0.0000      12.360808       336.3547 
 127   0.0000      12.425970       338.1278 
 128   0.0000      12.425970       338.1278 
 129   0.0000      12.503515       340.2379 
 130   0.0000      13.991282       380.7221 
 131   0.0000      13.991282       380.7221 
 132   0.0000      13.993046       380.7701 
 133   0.0000      13.994471       380.8089 
 134   0.0000      14.003783       381.0623 
 135   0.0000      14.003859       381.0644 
 136   0.0000      14.076800       383.0492 
 137   0.0000      14.076800       383.0492 
 138   0.0000      14.272494       388.3743 

                    ********************************
                    * MULLIKEN POPULATION ANALYSIS *
                    ********************************

--------------------------------------------
MULLIKEN ATOMIC CHARGES AND SPIN POPULATIONS
--------------------------------------------
   0 Ni:    0.664209    0.984111
   1 F :   -0.664209    0.015889
Sum of atomic charges         :    0.0000000
Sum of atomic spin populations:    1.0000000

-----------------------------------------------------
MULLIKEN REDUCED ORBITAL CHARGES AND SPIN POPULATIONS
-----------------------------------------------------
CHARGE
  0 Nis       :     6.219044  s :     6.219044
      pz      :     4.020754  p :    12.089502
      px      :     4.034374
      py      :     4.034374
      dz2     :     1.028258  d :     9.019676
      dxz     :     1.995975
      dyz     :     1.995975
      dx2y2   :     1.999734
      dxy     :     1.999735
      f0      :     0.002943  f :     0.007375
      f+1     :     0.002067
      f-1     :     0.002067
      f+2     :     0.000148
      f-2     :     0.000149
      f+3     :     0.000000
      f-3     :     0.000000
      g0      :     0.000105  g :     0.000194
      g+1     :     0.000036
      g-1     :     0.000036
      g+2     :     0.000009
      g-2     :     0.000009
      g+3     :     0.000000
      g-3     :     0.000000
      g+4     :     0.000000
      g-4     :     0.000000
  1 F s       :     4.004927  s :     4.004927
      pz      :     1.721134  p :     5.651304
      px      :     1.965085
      py      :     1.965085
      dz2     :     0.002616  d :     0.007212
      dxz     :     0.002233
      dyz     :     0.002233
      dx2y2   :     0.000066
      dxy     :     0.000065
      f0      :     0.000220  f :     0.000766
      f+1     :     0.000229
      f-1     :     0.000229
      f+2     :     0.000044
      f-2     :     0.000042
      f+3     :     0.000001
      f-3     :     0.000001

SPIN
  0 Nis       :     0.100336  s :     0.100336
      pz      :     0.000692  p :     0.002647
      px      :     0.000977
      py      :     0.000977
      dz2     :     0.879418  d :     0.881116
      dxz     :     0.000773
      dyz     :     0.000773
      dx2y2   :     0.000076
      dxy     :     0.000076
      f0      :     0.000240  f :    -0.000033
      f+1     :    -0.000119
      f-1     :    -0.000119
      f+2     :    -0.000017
      f-2     :    -0.000017
      f+3     :     0.000000
      f-3     :     0.000000
      g0      :     0.000047  g :     0.000045
      g+1     :     0.000007
      g-1     :     0.000007
      g+2     :    -0.000008
      g-2     :    -0.000009
      g+3     :    -0.000000
      g-3     :    -0.000000
      g+4     :     0.000000
      g-4     :     0.000000
  1 F s       :     0.004753  s :     0.004753
      pz      :     0.014162  p :     0.010902
      px      :    -0.001630
      py      :    -0.001630
      dz2     :     0.000319  d :     0.000219
      dxz     :    -0.000006
      dyz     :    -0.000006
      dx2y2   :    -0.000044
      dxy     :    -0.000043
      f0      :     0.000033  f :     0.000014
      f+1     :    -0.000003
      f-1     :    -0.000003
      f+2     :    -0.000006
      f-2     :    -0.000006
      f+3     :     0.000000
      f-3     :     0.000000


                     *******************************
                     * LOEWDIN POPULATION ANALYSIS *
                     *******************************

-------------------------------------------
LOEWDIN ATOMIC CHARGES AND SPIN POPULATIONS
-------------------------------------------
   0 Ni:    0.458708    0.980901
   1 F :   -0.458708    0.019099

----------------------------------------------------
LOEWDIN REDUCED ORBITAL CHARGES AND SPIN POPULATIONS
----------------------------------------------------
CHARGE
  0 Nis       :     6.205898  s :     6.205898
      pz      :     4.083799  p :    12.189275
      px      :     4.052738
      py      :     4.052738
      dz2     :     1.096770  d :     9.097414
      dxz     :     2.001934
      dyz     :     2.001934
      dx2y2   :     1.998387
      dxy     :     1.998389
      f0      :     0.025132  f :     0.048081
      f+1     :     0.011291
      f-1     :     0.011291
      f+2     :     0.000183
      f-2     :     0.000185
      f+3     :     0.000000
      f-3     :     0.000000
      g0      :     0.000328  g :     0.000624
      g+1     :     0.000140
      g-1     :     0.000140
      g+2     :     0.000008
      g-2     :     0.000008
      g+3     :     0.000000
      g-3     :     0.000000
      g+4     :     0.000000
      g-4     :     0.000000
  1 F s       :     3.815839  s :     3.815839
      pz      :     1.728247  p :     5.549482
      px      :     1.910618
      py      :     1.910618
      dz2     :     0.039474  d :     0.080416
      dxz     :     0.019347
      dyz     :     0.019347
      dx2y2   :     0.001126
      dxy     :     0.001123
      f0      :     0.004513  f :     0.012971
      f+1     :     0.003933
      f-1     :     0.003933
      f+2     :     0.000296
      f-2     :     0.000294
      f+3     :     0.000001
      f-3     :     0.000001

SPIN
  0 Nis       :     0.108628  s :     0.108628
      pz      :     0.004556  p :     0.005969
      px      :     0.000706
      py      :     0.000706
      dz2     :     0.863430  d :     0.865569
      dxz     :     0.000970
      dyz     :     0.000970
      dx2y2   :     0.000099
      dxy     :     0.000099
      f0      :     0.001004  f :     0.000688
      f+1     :    -0.000138
      f-1     :    -0.000138
      f+2     :    -0.000020
      f-2     :    -0.000020
      f+3     :     0.000000
      f-3     :     0.000000
      g0      :     0.000056  g :     0.000047
      g+1     :     0.000003
      g-1     :     0.000003
      g+2     :    -0.000008
      g-2     :    -0.000008
      g+3     :    -0.000000
      g-3     :    -0.000000
      g+4     :     0.000000
      g-4     :     0.000000
  1 F s       :     0.002049  s :     0.002049
      pz      :     0.015686  p :     0.012920
      px      :    -0.001383
      py      :    -0.001383
      dz2     :     0.002864  d :     0.002457
      dxz     :    -0.000140
      dyz     :    -0.000140
      dx2y2   :    -0.000064
      dxy     :    -0.000064
      f0      :     0.001724  f :     0.001673
      f+1     :    -0.000018
      f-1     :    -0.000018
      f+2     :    -0.000007
      f-2     :    -0.000007
      f+3     :     0.000000
      f-3     :     0.000000


                      *****************************
                      * MAYER POPULATION ANALYSIS *
                      *****************************

  NA   - Mulliken gross atomic population
  ZA   - Total nuclear charge
  QA   - Mulliken gross atomic charge
  VA   - Mayer's total valence
  BVA  - Mayer's bonded valence
  FA   - Mayer's free valence

  ATOM       NA         ZA         QA         VA         BVA        FA
  0 Ni    27.3358    28.0000     0.6642     1.5219     0.6077     0.9142
  1 F      9.6642     9.0000    -0.6642     0.6087     0.6077     0.0010

  Mayer bond orders larger than 0.100000
B(  0-Ni,  1-F ) :   0.6077 

-------
TIMINGS
-------

Total SCF time: 0 days 0 hours 0 min 2 sec 

Total time                  ....       2.557 sec
Sum of individual times     ....       2.418 sec  ( 94.6%)

Fock matrix formation       ....       2.041 sec  ( 79.8%)
  Split-RI-J                ....       1.708 sec  ( 83.7% of F)
  XC integration            ....       0.261 sec  ( 12.8% of F)
    Basis function eval.    ....       0.030 sec  ( 11.5% of XC)
    Density eval.           ....       0.034 sec  ( 13.2% of XC)
    XC-Functional eval.     ....       0.009 sec  (  3.4% of XC)
    XC-Potential eval.      ....       0.099 sec  ( 37.8% of XC)
Diagonalization             ....       0.072 sec  (  2.8%)
Density matrix formation    ....       0.009 sec  (  0.4%)
Population analysis         ....       0.007 sec  (  0.3%)
Initial guess               ....       0.124 sec  (  4.8%)
Orbital Transformation      ....       0.000 sec  (  0.0%)
Orbital Orthonormalization  ....       0.000 sec  (  0.0%)
DIIS solution               ....       0.024 sec  (  0.9%)
Grid generation             ....       0.140 sec  (  5.5%)


-------------------------------------------------------------------------------
                          DFT DISPERSION CORRECTION                            
                                                                               
                              DFTD3 V3.1  Rev 1                                
                          USING Becke-Johnson damping                          
-------------------------------------------------------------------------------
The TPSS functional is recognized
Active option DFTDOPT                   ...         4   

molecular C6(AA) [au] = 568.209068 


            DFT-D V3
 parameters
 s6 scaling factor         :     1.0000 
 a1 scaling factor         :     0.4535 
 s8 scaling factor         :     1.9435 
 a2 scaling factor         :     4.4752 
 ad hoc parameters k1-k3   :    16.0000     1.3333    -4.0000 

 Edisp/kcal,au: -0.437924132091  -0.000697876452 
 E6   /kcal   :  -0.181408091 
 E8   /kcal   :  -0.256516042 
 % E8         :  58.575452396 

-------------------------   ----------------
Dispersion correction           -0.000697876
-------------------------   ----------------


-------------------------   --------------------
FINAL SINGLE POINT ENERGY     -1608.272684217862
-------------------------   --------------------



           ************************************************************
           *        Program running with 24 parallel MPI-processes    *
           *              working on a common directory               *
           ************************************************************
------------------------------------------------------------------------------
                         ORCA SCF GRADIENT CALCULATION
------------------------------------------------------------------------------

Gradient of the Kohn-Sham DFT energy:
Kohn-Sham wavefunction type      ... UKS
Hartree-Fock exchange scaling    ...    0.000
Number of operators              ...    2
Number of atoms                  ...    2
Basis set dimensions             ...  139
Integral neglect threshold       ... 2.5e-11
Integral primitive cutoff        ... 2.5e-12

Nuclear repulsion gradient       ... done
One Electron Gradient            ... done
Pre-screening matrix             ... done
RI-J gradient                    ... done
Exchange-correlation gradient    ... done
Dispersion correction            ... done

------------------
CARTESIAN GRADIENT
------------------

   1   Ni  :    0.000000005   -0.000000002   -0.050167203
   2   F   :    0.000000001    0.000000000    0.050836408

Difference to translation invariance:
           :    0.0000000055   -0.0000000018    0.0006692042

Norm of the cartesian gradient     ...    0.0714219058
RMS gradient                       ...    0.0291578709
MAX gradient                       ...    0.0508364076

-------
TIMINGS
-------

Total SCF gradient time            ...        4.227 sec

One electron gradient       ....       0.054 sec  (  1.3%)
Prescreening matrices       ....       3.382 sec  ( 80.0%)
RI-J Coulomb gradient       ....       0.227 sec  (  5.4%)
XC gradient                 ....       0.043 sec  (  1.0%)
------------------------------------------------------------------------------
                         ORCA GEOMETRY RELAXATION STEP
------------------------------------------------------------------------------

Reading the OPT-File                    .... done
Getting information on internals        .... done
Copying old internal coords+grads       .... done
Making the new internal coordinates     .... (new redundants).... done
Validating the new internal coordinates .... (new redundants).... done
Calculating the B-matrix                .... done
Calculating the G,G- and P matrices     .... done
Transforming gradient to internals      .... done
Projecting the internal gradient        .... done
Number of atoms                         ....   2
Number of internal coordinates          ....   1
Current Energy                          .... -1608.272684218 Eh
Current gradient norm                   ....     0.071421906 Eh/bohr
Maximum allowed component of the step   ....  0.300
Current trust radius                    ....  0.300
Evaluating the initial hessian          ....  (Almloef) done
Projecting the Hessian                  .... done
Forming the augmented Hessian           .... done
Diagonalizing the augmented Hessian     .... done
Last element of RFO vector              ....  0.996016703
Lowest eigenvalues of augmented Hessian:
 -0.004521096
Length of the computed step             ....  0.089523445
The final length of the internal step   ....  0.089523445
Converting the step to cartesian space:
 Initial RMS(Int)=    0.0895234451
Transforming coordinates:
 Iter   0:  RMS(Cart)=    0.0258431926 RMS(Int)=    0.0895234451
 Iter   1:  RMS(Cart)=    0.0000000000 RMS(Int)=    0.0000000000
done
Storing new coordinates                 .... done

                                .--------------------.
          ----------------------|Geometry convergence|-------------------------
          Item                value                   Tolerance       Converged
          ---------------------------------------------------------------------
          RMS gradient        0.0505018055            0.0001000000      NO
          MAX gradient        0.0505018055            0.0003000000      NO
          RMS step            0.0895234451            0.0020000000      NO
          MAX step            0.0895234451            0.0040000000      NO
          ........................................................
          Max(Bonds)      0.0474      Max(Angles)    0.00
          Max(Dihed)        0.00      Max(Improp)    0.00
          ---------------------------------------------------------------------

The optimization has not yet converged - more geometry cycles are needed


    ---------------------------------------------------------------------------
                         Redundant Internal Coordinates
                            (Angstroem and degrees)

        Definition                    Value    dE/dq     Step     New-Value
    ----------------------------------------------------------------------------
     1. B(F   1,Ni  0)                2.0000  0.050502 -0.0474    1.9526   
    ----------------------------------------------------------------------------

         *************************************************************
         *                GEOMETRY OPTIMIZATION CYCLE   2            *
         *************************************************************
---------------------------------
CARTESIAN COORDINATES (ANGSTROEM)
---------------------------------
  Ni     0.000000    0.000000    0.023687
  F      0.000000    0.000000    1.976313

----------------------------
CARTESIAN COORDINATES (A.U.)
----------------------------
  NO LB      ZA    FRAG     MASS         X           Y           Z
   0 Ni   28.0000    0    58.700    0.000000    0.000000    0.044762
   1 F     9.0000    0    18.998    0.000000    0.000000    3.734691

--------------------------------
INTERNAL COORDINATES (ANGSTROEM)
--------------------------------
 Ni     0   0   0     0.000000000000     0.00000000     0.00000000
 F      1   0   0     1.952626233233     0.00000000     0.00000000

---------------------------
INTERNAL COORDINATES (A.U.)
---------------------------
 Ni     0   0   0     0.000000000000     0.00000000     0.00000000
 F      1   0   0     3.689928822720     0.00000000     0.00000000



           ************************************************************
           *        Program running with 24 parallel MPI-processes    *
           *              working on a common directory               *
           ************************************************************
 One Electron integrals                  ... done
 Pre-screening matrix                    ... done


           ************************************************************
           *        Program running with 24 parallel MPI-processes    *
           *              working on a common directory               *
           ************************************************************

Diagonalization of the overlap matrix:
Smallest eigenvalue                        ... 3.839e-04
Time for diagonalization                   ...    0.005 sec
Threshold for overlap eigenvalues          ... 1.000e-08
Number of eigenvalues below threshold      ... 0
Time for construction of square roots      ...    0.003 sec
Total time needed                          ...    0.008 sec

-------------------
DFT GRID GENERATION
-------------------

General Integration Accuracy     IntAcc      ...  4.340
Radial Grid Type                 RadialGrid  ... Gauss-Chebyshev
Angular Grid (max. acc.)         AngularGrid ... Lebedev-110
Angular grid pruning method      GridPruning ... 3 (G Style)
Weight generation scheme         WeightScheme... Becke
Basis function cutoff            BFCut       ...    1.0000e-11
Integration weight cutoff        WCut        ...    1.0000e-14
Grids for H and He will be reduced by one unit

# of grid points (after initial pruning)     ...   4652 (   0.0 sec)
# of grid points (after weights+screening)   ...   4628 (   0.0 sec)
nearest neighbour list constructed           ...    0.0 sec
Grid point re-assignment to atoms done       ...    0.0 sec
Grid point division into batches done        ...    0.0 sec
Reduced shell lists constructed in    0.0 sec

Total number of grid points                  ...     4628
Total number of batches                      ...       74
Average number of points per batch           ...       62
Average number of grid points per atom       ...     2314
Average number of shells per batch           ...    20.80 (53.33%)
Average number of basis functions per batch  ...    59.20 (42.59%)
Average number of large shells per batch     ...    16.00 (76.92%)
Average number of large basis fcns per batch ...    45.60 (77.03%)
Maximum spatial batch extension              ...  17.39, 26.34, 14.81 au
Average spatial batch extension              ...   0.91,  1.20,  0.80 au

Time for grid setup =    0.019 sec

--------------
SCF ITERATIONS
--------------
ITER       Energy         Delta-E        Max-DP      RMS-DP      [F,P]     Damp
               ***  Starting incremental Fock matrix formation  ***
  0  -1608.2780420907   0.000000000000 0.00110772  0.00002750  0.0067847 0.7000
  1  -1608.2780874407  -0.000045349995 0.00123374  0.00002452  0.0032846 0.7000
                               ***Turning on DIIS***
  2  -1608.2781167361  -0.000029295416 0.00364827  0.00006240  0.0022998 0.0000
  3  -1608.2781905477  -0.000073811677 0.00093571  0.00001457  0.0011408 0.0000
  4  -1608.2781932165  -0.000002668718 0.00069454  0.00000858  0.0017768 0.0000
  5  -1608.2781978584  -0.000004641952 0.00221400  0.00001780  0.0004361 0.0000
  6  -1608.2782021104  -0.000004251972 0.00025462  0.00000361  0.0006115 0.0000
  7  -1608.2782027942  -0.000000683766 0.00018675  0.00000246  0.0003179 0.0000
  8  -1608.2782034752  -0.000000681073 0.00006909  0.00000086  0.0001095 0.0000
  9  -1608.2782035330  -0.000000057805 0.00001436  0.00000028  0.0000389 0.0000
 10  -1608.2782036401  -0.000000107022 0.00000282  0.00000006  0.0000135 0.0000
 11  -1608.2782036406  -0.000000000571 0.00000135  0.00000003  0.0000050 0.0000
                            ***DIIS convergence achieved***

               *****************************************************
               *                     SUCCESS                       *
               *           SCF CONVERGED AFTER  12 CYCLES          *
               *****************************************************

Setting up the final grid:

General Integration Accuracy     IntAcc      ...  4.670
Radial Grid Type                 RadialGrid  ... Gauss-Chebyshev
Angular Grid (max. acc.)         AngularGrid ... Lebedev-302
Angular grid pruning method      GridPruning ... 3 (G Style)
Weight generation scheme         WeightScheme... Becke
Basis function cutoff            BFCut       ...    1.0000e-11
Integration weight cutoff        WCut        ...    1.0000e-14
Grids for H and He will be reduced by one unit

# of grid points (after initial pruning)     ...  15936 (   0.0 sec)
# of grid points (after weights+screening)   ...  15894 (   0.0 sec)
nearest neighbour list constructed           ...    0.0 sec
Grid point re-assignment to atoms done       ...    0.0 sec
Grid point division into batches done        ...    0.1 sec
Reduced shell lists constructed in    0.1 sec

Total number of grid points                  ...    15894
Total number of batches                      ...      250
Average number of points per batch           ...       63
Average number of grid points per atom       ...     7947
Average number of shells per batch           ...    15.83 (40.60%)
Average number of basis functions per batch  ...    36.67 (26.38%)
Average number of large shells per batch     ...     8.83 (55.79%)
Average number of large basis fcns per batch ...    20.17 (55.00%)
Maximum spatial batch extension              ...  22.45, 25.48, 16.62 au
Average spatial batch extension              ...   0.79,  0.81,  0.62 au

Final grid set up in    0.1 sec
Final integration                            ... done (   0.0 sec)
Change in XC energy                          ...     0.001839955
Integrated number of electrons               ...    37.000014742
Previous integrated no of electrons          ...    36.999882828
Total Energy       :        -1608.27636375 Eh          -43763.42475 eV
  Last Energy change         ...   -6.5967e-08  Tolerance :   1.0000e-08
  Last MAX-Density change    ...    3.2191e-06  Tolerance :   1.0000e-07
             **** THE GBW FILE WAS UPDATED (44_NiF.gbw) ****
             **** DENSITY FILE WAS UPDATED (44_NiF.scfp) ****
             **** ENERGY FILE WAS UPDATED (44_NiF.en.tmp) ****
----------------------
UHF SPIN CONTAMINATION
----------------------

Warning: in a DFT calculation there is little theoretical justification to 
         calculate <S**2> as in Hartree-Fock theory. We will do it anyways
         but you should keep in mind that the values have only limited relevance

Expectation value of <S**2>     :     0.752558
Ideal value S*(S+1) for S=0.5   :     0.750000
Deviation                       :     0.002558

             **** THE GBW FILE WAS UPDATED (44_NiF.gbw) ****
             **** DENSITY FILE WAS UPDATED (44_NiF.scfp) ****
Total SCF time: 0 days 0 hours 0 min 2 sec 


-------------------------------------------------------------------------------
                          DFT DISPERSION CORRECTION                            
                                                                               
                              DFTD3 V3.1  Rev 1                                
                          USING Becke-Johnson damping                          
-------------------------------------------------------------------------------
-------------------------   ----------------
Dispersion correction           -0.000651838
-------------------------   ----------------


-------------------------   --------------------
FINAL SINGLE POINT ENERGY     -1608.277015588828
-------------------------   --------------------



           ************************************************************
           *        Program running with 24 parallel MPI-processes    *
           *              working on a common directory               *
           ************************************************************
------------------------------------------------------------------------------
                         ORCA SCF GRADIENT CALCULATION
------------------------------------------------------------------------------

Gradient of the Kohn-Sham DFT energy:
Kohn-Sham wavefunction type      ... UKS
Hartree-Fock exchange scaling    ...    0.000
Number of operators              ...    2
Number of atoms                  ...    2
Basis set dimensions             ...  139
Integral neglect threshold       ... 2.5e-11
Integral primitive cutoff        ... 2.5e-12

Nuclear repulsion gradient       ... done
One Electron Gradient            ... done
Pre-screening matrix             ... done
RI-J gradient                    ... done
Exchange-correlation gradient    ... done
Dispersion correction            ... done

------------------
CARTESIAN GRADIENT
------------------

   1   Ni  :    0.000000001    0.000000002   -0.045637273
   2   F   :    0.000000001   -0.000000003    0.046401128

Difference to translation invariance:
           :    0.0000000014   -0.0000000018    0.0007638546

Norm of the cartesian gradient     ...    0.0650832190
RMS gradient                       ...    0.0265701129
MAX gradient                       ...    0.0464011280

-------
TIMINGS
-------

Total SCF gradient time            ...        4.215 sec

One electron gradient       ....       0.054 sec  (  1.3%)
Prescreening matrices       ....       3.373 sec  ( 80.0%)
RI-J Coulomb gradient       ....       0.229 sec  (  5.4%)
XC gradient                 ....       0.045 sec  (  1.1%)
------------------------------------------------------------------------------
                         ORCA GEOMETRY RELAXATION STEP
------------------------------------------------------------------------------

Reading the OPT-File                    .... done
Getting information on internals        .... done
Copying old internal coords+grads       .... done
Making the new internal coordinates     .... (new redundants).... done
Validating the new internal coordinates .... (new redundants).... done
Calculating the B-matrix                .... done
Calculating the G,G- and P matrices     .... done
Transforming gradient to internals      .... done
Projecting the internal gradient        .... done
Number of atoms                         ....   2
Number of internal coordinates          ....   1
Current Energy                          .... -1608.277015589 Eh
Current gradient norm                   ....     0.065083219 Eh/bohr
Maximum allowed component of the step   ....  0.300
Current trust radius                    ....  0.300
Updating the Hessian (BFGS)             .... done
Forming the augmented Hessian           .... done
Diagonalizing the augmented Hessian     .... done
Last element of RFO vector              ....  0.859618785
Lowest eigenvalues of augmented Hessian:
 -0.027352664
Length of the computed step             ....  0.594375040
Warning: the length of the step is outside the trust region - taking restricted step instead
The input lambda is                     ....    -0.027353
   iter:   1  x=   -0.056203  g=    9.125835 f(x)=     0.263282
   iter:   2  x=   -0.083835  g=    3.528734 f(x)=     0.097508
   iter:   3  x=   -0.099768  g=    1.763995 f(x)=     0.028106
   iter:   4  x=   -0.103203  g=    1.258995 f(x)=     0.004324
   iter:   5  x=   -0.103325  g=    1.176245 f(x)=     0.000144
   iter:   6  x=   -0.103325  g=    1.173427 f(x)=     0.000000
   iter:   7  x=   -0.103325  g=    1.173423 f(x)=     0.000000
   iter:   8  x=   -0.103325  g=    1.173423 f(x)=     0.000000
The output lambda is                    ....    -0.103325 (8 iterations)
The final length of the internal step   ....  0.300000000
Converting the step to cartesian space:
 Initial RMS(Int)=    0.3000000000
Transforming coordinates:
 Iter   0:  RMS(Cart)=    0.0866025404 RMS(Int)=    0.3000000000
 Iter   1:  RMS(Cart)=    0.0000000000 RMS(Int)=    0.0000000000
done
Storing new coordinates                 .... done

                                .--------------------.
          ----------------------|Geometry convergence|-------------------------
          Item                value                   Tolerance       Converged
          ---------------------------------------------------------------------
          Energy change      -0.0043313710            0.0000050000      NO
          RMS gradient        0.0460192007            0.0001000000      NO
          MAX gradient        0.0460192007            0.0003000000      NO
          RMS step            0.3000000000            0.0020000000      NO
          MAX step            0.3000000000            0.0040000000      NO
          ........................................................
          Max(Bonds)      0.1588      Max(Angles)    0.00
          Max(Dihed)        0.00      Max(Improp)    0.00
          ---------------------------------------------------------------------

The optimization has not yet converged - more geometry cycles are needed


    ---------------------------------------------------------------------------
                         Redundant Internal Coordinates
                            (Angstroem and degrees)

        Definition                    Value    dE/dq     Step     New-Value
    ----------------------------------------------------------------------------
     1. B(F   1,Ni  0)                1.9526  0.046019 -0.1588    1.7939   
    ----------------------------------------------------------------------------

         *************************************************************
         *                GEOMETRY OPTIMIZATION CYCLE   3            *
         *************************************************************
---------------------------------
CARTESIAN COORDINATES (ANGSTROEM)
---------------------------------
  Ni     0.000000    0.000000    0.103063
  F      0.000000    0.000000    1.896937

----------------------------
CARTESIAN COORDINATES (A.U.)
----------------------------
  NO LB      ZA    FRAG     MASS         X           Y           Z
   0 Ni   28.0000    0    58.700    0.000000    0.000000    0.194762
   1 F     9.0000    0    18.998    0.000000    0.000000    3.584691

--------------------------------
INTERNAL COORDINATES (ANGSTROEM)
--------------------------------
 Ni     0   0   0     0.000000000000     0.00000000     0.00000000
 F      1   0   0     1.793873070743     0.00000000     0.00000000

---------------------------
INTERNAL COORDINATES (A.U.)
---------------------------
 Ni     0   0   0     0.000000000000     0.00000000     0.00000000
 F      1   0   0     3.389928822720     0.00000000     0.00000000



           ************************************************************
           *        Program running with 24 parallel MPI-processes    *
           *              working on a common directory               *
           ************************************************************
 One Electron integrals                  ... done
 Pre-screening matrix                    ... done


           ************************************************************
           *        Program running with 24 parallel MPI-processes    *
           *              working on a common directory               *
           ************************************************************

Diagonalization of the overlap matrix:
Smallest eigenvalue                        ... 2.777e-04
Time for diagonalization                   ...    0.005 sec
Threshold for overlap eigenvalues          ... 1.000e-08
Number of eigenvalues below threshold      ... 0
Time for construction of square roots      ...    0.002 sec
Total time needed                          ...    0.008 sec

-------------------
DFT GRID GENERATION
-------------------

General Integration Accuracy     IntAcc      ...  4.340
Radial Grid Type                 RadialGrid  ... Gauss-Chebyshev
Angular Grid (max. acc.)         AngularGrid ... Lebedev-110
Angular grid pruning method      GridPruning ... 3 (G Style)
Weight generation scheme         WeightScheme... Becke
Basis function cutoff            BFCut       ...    1.0000e-11
Integration weight cutoff        WCut        ...    1.0000e-14
Grids for H and He will be reduced by one unit

# of grid points (after initial pruning)     ...   4652 (   0.0 sec)
# of grid points (after weights+screening)   ...   4627 (   0.0 sec)
nearest neighbour list constructed           ...    0.0 sec
Grid point re-assignment to atoms done       ...    0.0 sec
Grid point division into batches done        ...    0.0 sec
Reduced shell lists constructed in    0.0 sec

Total number of grid points                  ...     4627
Total number of batches                      ...       74
Average number of points per batch           ...       62
Average number of grid points per atom       ...     2314
Average number of shells per batch           ...    20.80 (53.33%)
Average number of basis functions per batch  ...    59.20 (42.59%)
Average number of large shells per batch     ...    16.00 (76.92%)
Average number of large basis fcns per batch ...    45.60 (77.03%)
Maximum spatial batch extension              ...  17.39, 26.34, 14.81 au
Average spatial batch extension              ...   0.91,  1.20,  0.80 au

Time for grid setup =    0.019 sec

--------------
SCF ITERATIONS
--------------
ITER       Energy         Delta-E        Max-DP      RMS-DP      [F,P]     Damp
               ***  Starting incremental Fock matrix formation  ***
  0  -1608.2858896444   0.000000000000 0.00487562  0.00010154  0.0248399 0.7000
  1  -1608.2865610139  -0.000671369544 0.00548201  0.00009391  0.0126775 0.7000
                               ***Turning on DIIS***
  2  -1608.2870177770  -0.000456763048 0.01607727  0.00024848  0.0090676 0.0000
  3  -1608.2882167124  -0.001198935483 0.00449129  0.00005644  0.0037402 0.0000
  4  -1608.2882676727  -0.000050960274 0.00269198  0.00003397  0.0068123 0.0000
  5  -1608.2883221635  -0.000054490785 0.00261823  0.00002451  0.0016809 0.0000
  6  -1608.2883397710  -0.000017607550 0.00185953  0.00001823  0.0011785 0.0000
  7  -1608.2883501421  -0.000010371019 0.00562503  0.00005170  0.0008889 0.0000
  8  -1608.2883619865  -0.000011844461 0.00018187  0.00000378  0.0011981 0.0000
  9  -1608.2883634966  -0.000001510103 0.00018719  0.00000365  0.0002861 0.0000
 10  -1608.2883641087  -0.000000612098 0.00008654  0.00000106  0.0002729 0.0000
 11  -1608.2883642474  -0.000000138702 0.00002532  0.00000038  0.0000236 0.0000
 12  -1608.2883642914  -0.000000043980 0.00001347  0.00000018  0.0000325 0.0000
 13  -1608.2883643332  -0.000000041818 0.00000432  0.00000009  0.0000205 0.0000
 14  -1608.2883644041  -0.000000070828 0.00000279  0.00000005  0.0000057 0.0000
 15  -1608.2883644179  -0.000000013883 0.00000282  0.00000004  0.0000010 0.0000
                            ***DIIS convergence achieved***

               *****************************************************
               *                     SUCCESS                       *
               *           SCF CONVERGED AFTER  16 CYCLES          *
               *****************************************************

Setting up the final grid:

General Integration Accuracy     IntAcc      ...  4.670
Radial Grid Type                 RadialGrid  ... Gauss-Chebyshev
Angular Grid (max. acc.)         AngularGrid ... Lebedev-302
Angular grid pruning method      GridPruning ... 3 (G Style)
Weight generation scheme         WeightScheme... Becke
Basis function cutoff            BFCut       ...    1.0000e-11
Integration weight cutoff        WCut        ...    1.0000e-14
Grids for H and He will be reduced by one unit

# of grid points (after initial pruning)     ...  15936 (   0.0 sec)
# of grid points (after weights+screening)   ...  15888 (   0.0 sec)
nearest neighbour list constructed           ...    0.0 sec
Grid point re-assignment to atoms done       ...    0.0 sec
Grid point division into batches done        ...    0.1 sec
Reduced shell lists constructed in    0.1 sec

Total number of grid points                  ...    15888
Total number of batches                      ...      249
Average number of points per batch           ...       63
Average number of grid points per atom       ...     7944
Average number of shells per batch           ...    16.00 (41.03%)
Average number of basis functions per batch  ...    37.33 (26.86%)
Average number of large shells per batch     ...     9.42 (58.85%)
Average number of large basis fcns per batch ...    22.42 (60.04%)
Maximum spatial batch extension              ...  22.45, 22.17, 15.90 au
Average spatial batch extension              ...   0.80,  0.79,  0.61 au

Final grid set up in    0.1 sec
Final integration                            ... done (   0.1 sec)
Change in XC energy                          ...     0.002108309
Integrated number of electrons               ...    37.000028251
Previous integrated no of electrons          ...    37.000537655
Total Energy       :        -1608.28625611 Eh          -43763.69393 eV
  Last Energy change         ...   -1.8258e-09  Tolerance :   1.0000e-08
  Last MAX-Density change    ...    4.0801e-06  Tolerance :   1.0000e-07
             **** THE GBW FILE WAS UPDATED (44_NiF.gbw) ****
             **** DENSITY FILE WAS UPDATED (44_NiF.scfp) ****
             **** ENERGY FILE WAS UPDATED (44_NiF.en.tmp) ****
----------------------
UHF SPIN CONTAMINATION
----------------------

Warning: in a DFT calculation there is little theoretical justification to 
         calculate <S**2> as in Hartree-Fock theory. We will do it anyways
         but you should keep in mind that the values have only limited relevance

Expectation value of <S**2>     :     0.752391
Ideal value S*(S+1) for S=0.5   :     0.750000
Deviation                       :     0.002391

             **** THE GBW FILE WAS UPDATED (44_NiF.gbw) ****
             **** DENSITY FILE WAS UPDATED (44_NiF.scfp) ****
Total SCF time: 0 days 0 hours 0 min 3 sec 


-------------------------------------------------------------------------------
                          DFT DISPERSION CORRECTION                            
                                                                               
                              DFTD3 V3.1  Rev 1                                
                          USING Becke-Johnson damping                          
-------------------------------------------------------------------------------
-------------------------   ----------------
Dispersion correction           -0.000559109
-------------------------   ----------------


-------------------------   --------------------
FINAL SINGLE POINT ENERGY     -1608.286815219631
-------------------------   --------------------



           ************************************************************
           *        Program running with 24 parallel MPI-processes    *
           *              working on a common directory               *
           ************************************************************
------------------------------------------------------------------------------
                         ORCA SCF GRADIENT CALCULATION
------------------------------------------------------------------------------

Gradient of the Kohn-Sham DFT energy:
Kohn-Sham wavefunction type      ... UKS
Hartree-Fock exchange scaling    ...    0.000
Number of operators              ...    2
Number of atoms                  ...    2
Basis set dimensions             ...  139
Integral neglect threshold       ... 2.5e-11
Integral primitive cutoff        ... 2.5e-12

Nuclear repulsion gradient       ... done
One Electron Gradient            ... done
Pre-screening matrix             ... done
RI-J gradient                    ... done
Exchange-correlation gradient    ... done
Dispersion correction            ... done

------------------
CARTESIAN GRADIENT
------------------

   1   Ni  :   -0.000000003    0.000000005   -0.014070788
   2   F   :    0.000000002   -0.000000001    0.015041039

Difference to translation invariance:
           :   -0.0000000008    0.0000000041    0.0009702515

Norm of the cartesian gradient     ...    0.0205965997
RMS gradient                       ...    0.0084085266
MAX gradient                       ...    0.0150410391

-------
TIMINGS
-------

Total SCF gradient time            ...        4.241 sec

[...]
 105   0.0000       5.584479       151.9614 
 106   0.0000       5.584534       151.9629 
 107   0.0000       5.915192       160.9606 
 108   0.0000       5.915193       160.9606 
 109   0.0000       6.904800       187.8892 
 110   0.0000       8.388826       228.2716 
 111   0.0000       8.388826       228.2716 
 112   0.0000       8.431365       229.4291 
 113   0.0000       8.497071       231.2171 
 114   0.0000       8.728789       237.5224 
 115   0.0000       8.734455       237.6766 
 116   0.0000       8.771646       238.6886 
 117   0.0000       8.791076       239.2173 
 118   0.0000       8.791076       239.2174 
 119   0.0000       8.848571       240.7818 
 120   0.0000       8.848571       240.7818 
 121   0.0000       9.158194       249.2071 
 122   0.0000      12.338420       335.7455 
 123   0.0000      12.338420       335.7455 
 124   0.0000      12.351159       336.0921 
 125   0.0000      12.351256       336.0948 
 126   0.0000      12.375353       336.7505 
 127   0.0000      12.375353       336.7505 
 128   0.0000      12.382947       336.9571 
 129   0.0000      13.429314       365.4302 
 130   0.0000      13.983556       380.5119 
 131   0.0000      13.983556       380.5119 
 132   0.0000      13.984407       380.5350 
 133   0.0000      13.984610       380.5406 
 134   0.0000      14.001250       380.9934 
 135   0.0000      14.001724       381.0063 
 136   0.0000      14.171321       385.6212 
 137   0.0000      14.171322       385.6213 
 138   0.0000      14.471142       393.7798 

                 SPIN DOWN ORBITALS
  NO   OCC          E(Eh)            E(eV) 
   0   1.0000    -298.918048     -8133.9736 
   1   1.0000     -35.300766      -960.5827 
   2   1.0000     -30.750768      -836.7709 
   3   1.0000     -30.733488      -836.3007 
   4   1.0000     -30.733488      -836.3007 
   5   1.0000     -24.323230      -661.8687 
   6   1.0000      -3.819486      -103.9335 
   7   1.0000      -2.440967       -66.4221 
   8   1.0000      -2.422369       -65.9160 
   9   1.0000      -2.422369       -65.9160 
  10   1.0000      -0.995894       -27.0997 
  11   1.0000      -0.333478        -9.0744 
  12   1.0000      -0.295345        -8.0368 
  13   1.0000      -0.295345        -8.0367 
  14   1.0000      -0.177390        -4.8270 
  15   1.0000      -0.177389        -4.8270 
  16   1.0000      -0.156999        -4.2722 
  17   1.0000      -0.156996        -4.2721 
  18   0.0000      -0.146793        -3.9944 
  19   0.0000      -0.108676        -2.9572 
  20   0.0000      -0.010079        -0.2743 
  21   0.0000      -0.010079        -0.2743 
  22   0.0000       0.010028         0.2729 
  23   0.0000       0.015928         0.4334 
  24   0.0000       0.045874         1.2483 
  25   0.0000       0.045874         1.2483 
  26   0.0000       0.073013         1.9868 
  27   0.0000       0.083796         2.2802 
  28   0.0000       0.083826         2.2810 
  29   0.0000       0.086083         2.3424 
  30   0.0000       0.086083         2.3424 
  31   0.0000       0.096998         2.6395 
  32   0.0000       0.129032         3.5111 
  33   0.0000       0.213865         5.8196 
  34   0.0000       0.213866         5.8196 
  35   0.0000       0.224703         6.1145 
  36   0.0000       0.250371         6.8130 
  37   0.0000       0.250371         6.8130 
  38   0.0000       0.274066         7.4577 
  39   0.0000       0.363134         9.8814 
  40   0.0000       0.363218         9.8837 
  41   0.0000       0.373966        10.1761 
  42   0.0000       0.373966        10.1761 
  43   0.0000       0.393089        10.6965 
  44   0.0000       0.522456        14.2167 
  45   0.0000       0.649317        17.6688 
  46   0.0000       0.764559        20.8047 
  47   0.0000       0.764972        20.8159 
  48   0.0000       0.853199        23.2167 
  49   0.0000       0.853199        23.2167 
  50   0.0000       0.883568        24.0431 
  51   0.0000       0.955930        26.0122 
  52   0.0000       0.955930        26.0122 
  53   0.0000       1.060293        28.8520 
  54   0.0000       1.060293        28.8520 
  55   0.0000       1.061108        28.8742 
  56   0.0000       1.261936        34.3390 
  57   0.0000       1.261936        34.3390 
  58   0.0000       1.315949        35.8088 
  59   0.0000       1.327489        36.1228 
  60   0.0000       1.327845        36.1325 
  61   0.0000       1.364904        37.1409 
  62   0.0000       1.364904        37.1409 
  63   0.0000       1.406849        38.2823 
  64   0.0000       1.407614        38.3031 
  65   0.0000       1.501976        40.8708 
  66   0.0000       1.663973        45.2790 
  67   0.0000       1.715406        46.6786 
  68   0.0000       1.715406        46.6786 
  69   0.0000       2.301356        62.6231 
  70   0.0000       2.573653        70.0327 
  71   0.0000       2.583839        70.3098 
  72   0.0000       2.661441        72.4215 
  73   0.0000       2.661441        72.4215 
  74   0.0000       2.670297        72.6625 
  75   0.0000       2.670297        72.6625 
  76   0.0000       2.799768        76.1856 
  77   0.0000       2.801818        76.2414 
  78   0.0000       2.902752        78.9879 
  79   0.0000       3.239841        88.1606 
  80   0.0000       3.239841        88.1606 
  81   0.0000       3.525972        95.9466 
  82   0.0000       3.593116        97.7737 
  83   0.0000       3.838044       104.4385 
  84   0.0000       3.838044       104.4385 
  85   0.0000       3.863539       105.1322 
  86   0.0000       3.863658       105.1355 
  87   0.0000       3.902559       106.1940 
  88   0.0000       3.902559       106.1940 
  89   0.0000       3.976938       108.2180 
  90   0.0000       3.976938       108.2180 
  91   0.0000       4.264303       116.0376 
  92   0.0000       4.348169       118.3197 
  93   0.0000       4.815473       131.0357 
  94   0.0000       4.817284       131.0850 
  95   0.0000       4.817284       131.0850 
  96   0.0000       5.005221       136.1990 
  97   0.0000       5.005221       136.1990 
  98   0.0000       5.024834       136.7327 
  99   0.0000       5.025353       136.7468 
 100   0.0000       5.087467       138.4370 
 101   0.0000       5.087596       138.4405 
 102   0.0000       5.301914       144.2724 
 103   0.0000       5.301914       144.2724 
 104   0.0000       5.576613       151.7473 
 105   0.0000       5.607486       152.5875 
 106   0.0000       5.607576       152.5899 
 107   0.0000       5.927551       161.2969 
 108   0.0000       5.927552       161.2969 
 109   0.0000       6.941811       188.8963 
 110   0.0000       8.388688       228.2678 
 111   0.0000       8.388688       228.2678 
 112   0.0000       8.432087       229.4488 
 113   0.0000       8.497457       231.2276 
 114   0.0000       8.728484       237.5141 
 115   0.0000       8.734084       237.6665 
 116   0.0000       8.774322       238.7614 
 117   0.0000       8.792591       239.2586 
 118   0.0000       8.792591       239.2586 
 119   0.0000       8.850020       240.8213 
 120   0.0000       8.850020       240.8213 
 121   0.0000       9.162668       249.3289 
 122   0.0000      12.363355       336.4240 
 123   0.0000      12.363756       336.4349 
 124   0.0000      12.366727       336.5158 
 125   0.0000      12.366727       336.5158 
 126   0.0000      12.438374       338.4654 
 127   0.0000      12.438374       338.4654 
 128   0.0000      12.470406       339.3370 
 129   0.0000      13.444463       365.8424 
 130   0.0000      14.000788       380.9808 
 131   0.0000      14.000788       380.9808 
 132   0.0000      14.011767       381.2796 
 133   0.0000      14.011796       381.2804 
 134   0.0000      14.034030       381.8854 
 135   0.0000      14.035188       381.9169 
 136   0.0000      14.225953       387.1079 
 137   0.0000      14.225954       387.1079 
 138   0.0000      14.532601       395.4522 

                    ********************************
                    * MULLIKEN POPULATION ANALYSIS *
                    ********************************

--------------------------------------------
MULLIKEN ATOMIC CHARGES AND SPIN POPULATIONS
--------------------------------------------
   0 Ni:    0.611361    0.968769
   1 F :   -0.611361    0.031231
Sum of atomic charges         :    0.0000000
Sum of atomic spin populations:    1.0000000

-----------------------------------------------------
MULLIKEN REDUCED ORBITAL CHARGES AND SPIN POPULATIONS
-----------------------------------------------------
CHARGE
  0 Nis       :     6.268708  s :     6.268708
      pz      :     4.030490  p :    12.129374
      px      :     4.049442
      py      :     4.049442
      dz2     :     1.003325  d :     8.976075
      dxz     :     1.987078
      dyz     :     1.987078
      dx2y2   :     1.999293
      dxy     :     1.999300
      f0      :     0.006010  f :     0.013929
      f+1     :     0.003838
      f-1     :     0.003838
      f+2     :     0.000122
      f-2     :     0.000122
      f+3     :    -0.000000
      f-3     :    -0.000000
      g0      :     0.000266  g :     0.000553
      g+1     :     0.000132
      g-1     :     0.000132
      g+2     :     0.000011
      g-2     :     0.000011
      g+3     :     0.000000
      g-3     :     0.000000
      g+4     :     0.000000
      g-4     :     0.000000
  1 F s       :     3.997808  s :     3.997808
      pz      :     1.691291  p :     5.601378
      px      :     1.955044
      py      :     1.955044
      dz2     :     0.001613  d :     0.010378
      dxz     :     0.003972
      dyz     :     0.003972
      dx2y2   :     0.000412
      dxy     :     0.000409
      f0      :     0.000489  f :     0.001797
      f+1     :     0.000493
      f-1     :     0.000493
      f+2     :     0.000162
      f-2     :     0.000158
      f+3     :     0.000001
      f-3     :     0.000001

SPIN
  0 Nis       :     0.178967  s :     0.178967
      pz      :     0.000663  p :     0.006552
      px      :     0.002944
      py      :     0.002944
      dz2     :     0.781134  d :     0.783684
      dxz     :     0.001080
      dyz     :     0.001080
      dx2y2   :     0.000195
      dxy     :     0.000194
      f0      :     0.000120  f :    -0.000478
      f+1     :    -0.000282
      f-1     :    -0.000282
      f+2     :    -0.000017
      f-2     :    -0.000017
      f+3     :    -0.000000
      f-3     :    -0.000000
      g0      :     0.000058  g :     0.000045
      g+1     :     0.000004
      g-1     :     0.000004
      g+2     :    -0.000011
      g-2     :    -0.000011
      g+3     :     0.000000
      g-3     :     0.000000
      g+4     :     0.000000
      g-4     :     0.000000
  1 F s       :     0.007788  s :     0.007788
      pz      :     0.030195  p :     0.022894
      px      :    -0.003651
      py      :    -0.003651
      dz2     :     0.000846  d :     0.000445
      dxz     :    -0.000062
      dyz     :    -0.000062
      dx2y2   :    -0.000138
      dxy     :    -0.000138
      f0      :     0.000228  f :     0.000104
      f+1     :    -0.000033
      f-1     :    -0.000033
      f+2     :    -0.000029
      f-2     :    -0.000029
      f+3     :    -0.000000
      f-3     :    -0.000000


                     *******************************
                     * LOEWDIN POPULATION ANALYSIS *
                     *******************************

-------------------------------------------
LOEWDIN ATOMIC CHARGES AND SPIN POPULATIONS
-------------------------------------------
   0 Ni:    0.433556    0.959080
   1 F :   -0.433556    0.040920

----------------------------------------------------
LOEWDIN REDUCED ORBITAL CHARGES AND SPIN POPULATIONS
----------------------------------------------------
CHARGE
  0 Nis       :     6.197405  s :     6.197405
      pz      :     4.088714  p :    12.240452
      px      :     4.075869
      py      :     4.075869
      dz2     :     1.086447  d :     9.022923
      dxz     :     1.973615
      dyz     :     1.973615
      dx2y2   :     1.994619
      dxy     :     1.994627
      f0      :     0.045702  f :     0.103000
      f+1     :     0.028390
      f-1     :     0.028390
      f+2     :     0.000260
      f-2     :     0.000260
      f+3     :     0.000000
      f-3     :     0.000000
      g0      :     0.001303  g :     0.002664
      g+1     :     0.000672
      g-1     :     0.000672
      g+2     :     0.000008
      g-2     :     0.000008
      g+3     :     0.000000
      g-3     :     0.000000
      g+4     :     0.000000
      g-4     :     0.000000
  1 F s       :     3.734532  s :     3.734532
      pz      :     1.752109  p :     5.483915
      px      :     1.865903
      py      :     1.865903
      dz2     :     0.077365  d :     0.169544
      dxz     :     0.042383
      dyz     :     0.042383
      dx2y2   :     0.003708
      dxy     :     0.003704
      f0      :     0.016422  f :     0.045565
      f+1     :     0.013167
      f-1     :     0.013167
      f+2     :     0.001405
      f-2     :     0.001401
      f+3     :     0.000001
      f-3     :     0.000001

SPIN
  0 Nis       :     0.182991  s :     0.182991
      pz      :     0.004298  p :     0.009293
      px      :     0.002497
      py      :     0.002498
      dz2     :     0.764410  d :     0.766523
      dxz     :     0.000908
      dyz     :     0.000908
      dx2y2   :     0.000148
      dxy     :     0.000148
      f0      :     0.001028  f :     0.000174
      f+1     :    -0.000401
      f-1     :    -0.000401
      f+2     :    -0.000025
      f-2     :    -0.000026
      f+3     :    -0.000000
      f-3     :    -0.000000
      g0      :     0.000107  g :     0.000099
      g+1     :     0.000002
      g-1     :     0.000002
      g+2     :    -0.000006
      g-2     :    -0.000005
      g+3     :     0.000000
      g-3     :     0.000000
      g+4     :     0.000000
      g-4     :     0.000000
  1 F s       :     0.006307  s :     0.006307
      pz      :     0.034745  p :     0.029261
      px      :    -0.002742
      py      :    -0.002742
      dz2     :     0.002940  d :     0.002292
      dxz     :    -0.000217
      dyz     :    -0.000218
      dx2y2   :    -0.000107
      dxy     :    -0.000106
      f0      :     0.003174  f :     0.003060
      f+1     :    -0.000046
      f-1     :    -0.000046
      f+2     :    -0.000011
      f-2     :    -0.000010
      f+3     :    -0.000000
      f-3     :    -0.000000


                      *****************************
                      * MAYER POPULATION ANALYSIS *
                      *****************************

  NA   - Mulliken gross atomic population
  ZA   - Total nuclear charge
  QA   - Mulliken gross atomic charge
  VA   - Mayer's total valence
  BVA  - Mayer's bonded valence
  FA   - Mayer's free valence

  ATOM       NA         ZA         QA         VA         BVA        FA
  0 Ni    27.3886    28.0000     0.6114     1.6034     0.7222     0.8813
  1 F      9.6114     9.0000    -0.6114     0.7245     0.7222     0.0023

  Mayer bond orders larger than 0.100000
B(  0-Ni,  1-F ) :   0.7222 

-------
TIMINGS
-------

Total SCF time: 0 days 0 hours 0 min 2 sec 

Total time                  ....       2.989 sec
Sum of individual times     ....       2.805 sec  ( 93.8%)

Fock matrix formation       ....       2.554 sec  ( 85.5%)
  Split-RI-J                ....       1.778 sec  ( 69.6% of F)
  XC integration            ....       0.422 sec  ( 16.5% of F)
    Basis function eval.    ....       0.034 sec  (  8.1% of XC)
    Density eval.           ....       0.034 sec  (  8.2% of XC)
    XC-Functional eval.     ....       0.009 sec  (  2.1% of XC)
    XC-Potential eval.      ....       0.092 sec  ( 21.8% of XC)
Diagonalization             ....       0.070 sec  (  2.3%)
Density matrix formation    ....       0.009 sec  (  0.3%)
Population analysis         ....       0.008 sec  (  0.3%)
Initial guess               ....       0.014 sec  (  0.5%)
Orbital Transformation      ....       0.000 sec  (  0.0%)
Orbital Orthonormalization  ....       0.009 sec  (  0.3%)
DIIS solution               ....       0.024 sec  (  0.8%)
Grid generation             ....       0.126 sec  (  4.2%)


-------------------------------------------------------------------------------
                          DFT DISPERSION CORRECTION                            
                                                                               
                              DFTD3 V3.1  Rev 1                                
                          USING Becke-Johnson damping                          
-------------------------------------------------------------------------------
The TPSS functional is recognized
Active option DFTDOPT                   ...         4   

molecular C6(AA) [au] = 322.665914 


            DFT-D V3
 parameters
 s6 scaling factor         :     1.0000 
 a1 scaling factor         :     0.4535 
 s8 scaling factor         :     1.9435 
 a2 scaling factor         :     4.4752 
 ad hoc parameters k1-k3   :    16.0000     1.3333    -4.0000 

 Edisp/kcal,au: -0.346003176400  -0.000551391101 
 E6   /kcal   :  -0.143935461 
 E8   /kcal   :  -0.202067716 
 % E8         :  58.400537774 

-------------------------   ----------------
Dispersion correction           -0.000551391
-------------------------   ----------------


-------------------------   --------------------
FINAL SINGLE POINT ENERGY     -1608.287395460369
-------------------------   --------------------

                                *** OPTIMIZATION RUN DONE ***

                            ***************************************
                            *     ORCA property calculations      *
                            ***************************************

                                    ---------------------
                                    Active property flags
                                    ---------------------
   (+) Dipole Moment


------------------------------------------------------------------------------
                       ORCA ELECTRIC PROPERTIES CALCULATION
------------------------------------------------------------------------------

Dipole Moment Calculation                       ... on
Quadrupole Moment Calculation                   ... off
Polarizability Calculation                      ... off
GBWName                                         ... 44_NiF.gbw
Electron density file                           ... 44_NiF.scfp
The origin for moment calculation is the CENTER OF MASS  = ( 0.000000,  0.000000  1.043608)

-------------
DIPOLE MOMENT
-------------
                                X             Y             Z
Electronic contribution:      0.00000      -0.00000      -1.60517
Nuclear contribution   :      0.00000       0.00000      -0.15532
                        -----------------------------------------
Total Dipole Moment    :      0.00000      -0.00000      -1.76049
                        -----------------------------------------
Magnitude (a.u.)       :      1.76049
Magnitude (Debye)      :      4.47482



--------------------
Rotational spectrum 
--------------------
 
Rotational constants in cm-1:     0.000000     0.382421     0.382421 
Rotational constants in MHz :     0.000000 11464.697327 11464.697327 

 Dipole components along the rotational axes: 
x,y,z [a.u.] :    -1.760493    -0.000000     0.000000 
x,y,z [Debye]:    -4.474817    -0.000000     0.000000 

 

Timings for individual modules:

Sum of individual times         ...       71.967 sec (=   1.199 min)
GTO integral calculation        ...       18.591 sec (=   0.310 min)  25.8 %
SCF iterations                  ...       25.444 sec (=   0.424 min)  35.4 %
SCF Gradient evaluation         ...       27.735 sec (=   0.462 min)  38.5 %
Geometry relaxation             ...        0.196 sec (=   0.003 min)   0.3 %
                             ****ORCA TERMINATED NORMALLY****
TOTAL RUN TIME: 0 days 0 hours 1 minutes 12 seconds 945 msec
