
                                 *****************
                                 * O   R   C   A *
                                 *****************

           --- An Ab Initio, DFT and Semiempirical electronic structure package ---

                  #######################################################
                  #                        -***-                        #
                  #          Department of theory and spectroscopy      #
                  #               Directorship: Frank Neese             #
                  #        Max Planck Institute fuer Kohlenforschung    #
                  #                Kaiser Wilhelm Platz 1               #
                  #                 D-45470 Muelheim/Ruhr               #
                  #                      Germany                        #
                  #                                                     #
                  #                  All rights reserved                #
                  #                        -***-                        #
                  #######################################################


                         Program Version 4.2.0 -  RELEASE  -


 With contributions from (in alphabetic order):
   Daniel Aravena         : Magnetic Suceptibility
   Michael Atanasov       : Ab Initio Ligand Field Theory (pilot matlab implementation)
   Alexander A. Auer      : GIAO ZORA, VPT2
   Ute Becker             : Parallelization
   Giovanni Bistoni       : ED, misc. LED, open-shell LED, HFLED
   Martin Brehm           : Molecular dynamics
   Dmytro Bykov           : SCF Hessian
   Vijay G. Chilkuri      : MRCI spin determinant printing, contributions to CSF-ICE
   Dipayan Datta          : RHF DLPNO-CCSD density
   Achintya Kumar Dutta   : EOM-CC, STEOM-CC
   Dmitry Ganyushin       : Spin-Orbit,Spin-Spin,Magnetic field MRCI
   Miquel Garcia          : C-PCM Hessian, Gaussian charge scheme
   Yang Guo               : DLPNO-NEVPT2, CIM, IAO-localization
   Andreas Hansen         : Spin unrestricted coupled pair/coupled cluster methods
   Benjamin Helmich-Paris : CASSCF linear response (MC-RPA)
   Lee Huntington         : MR-EOM, pCC
   Robert Izsak           : Overlap fitted RIJCOSX, COSX-SCS-MP3, EOM
   Christian Kollmar      : KDIIS, OOCD, Brueckner-CCSD(T), CCSD density
   Simone Kossmann        : Meta GGA functionals, TD-DFT gradient, OOMP2, MP2 Hessian
   Martin Krupicka        : AUTO-CI
   Lucas Lang             : DCDCAS
   Dagmar Lenk            : GEPOL surface, SMD
   Dimitrios Liakos       : Extrapolation schemes; Compound Job, initial MDCI parallelization
   Dimitrios Manganas     : Further ROCIS development; embedding schemes
   Dimitrios Pantazis     : SARC Basis sets
   Taras Petrenko         : DFT Hessian,TD-DFT gradient, ASA, ECA, R-Raman, ABS, FL, XAS/XES, NRVS
   Peter Pinski           : DLPNO-MP2, DLPNO-MP2 Gradient
   Christoph Reimann      : Effective Core Potentials
   Marius Retegan         : Local ZFS, SOC
   Christoph Riplinger    : Optimizer, TS searches, QM/MM, DLPNO-CCSD(T), (RO)-DLPNO pert. Triples
   Tobias Risthaus        : Range-separated hybrids, TD-DFT gradient, RPA, STAB
   Michael Roemelt        : Original ROCIS implementation
   Masaaki Saitow         : Open-shell DLPNO-CCSD energy and density
   Barbara Sandhoefer     : DKH picture change effects
   Avijit Sen             : IP-ROCIS
   Kantharuban Sivalingam : CASSCF convergence, NEVPT2, FIC-MRCI
   Bernardo de Souza      : ESD, SOC TD-DFT
   Georgi Stoychev        : AutoAux, RI-MP2 NMR
   Willem Van den Heuvel  : Paramagnetic NMR
   Boris Wezisla          : Elementary symmetry handling
   Frank Wennmohs         : Technical directorship


 We gratefully acknowledge several colleagues who have allowed us to
 interface, adapt or use parts of their codes:
   Stefan Grimme, W. Hujo, H. Kruse,             : VdW corrections, initial TS optimization,
                  C. Bannwarth                     DFT functionals, gCP, sTDA/sTD-DF
   Ed Valeev, F. Pavosevic, A. Kumar             : LibInt (2-el integral package), F12 methods
   Garnet Chan, S. Sharma, J. Yang, R. Olivares  : DMRG
   Ulf Ekstrom                                   : XCFun DFT Library
   Mihaly Kallay                                 : mrcc  (arbitrary order and MRCC methods)
   Andreas Klamt, Michael Diedenhofen            : otool_cosmo (COSMO solvation model)
   Jiri Pittner, Ondrej Demel                    : Mk-CCSD
   Frank Weinhold                                : gennbo (NPA and NBO analysis)
   Christopher J. Cramer and Donald G. Truhlar   : smd solvation model
   Lars Goerigk                                  : TD-DFT with DH, B97 family of functionals
   V. Asgeirsson, H. Jonsson                     : NEB implementation
   FAccTs GmbH                                   : IRC, NEB, NEB-TS, Multilevel, MM, QM/MM, CI optimization
   S Lehtola, MJT Oliveira, MAL Marques          : LibXC Library


 Your calculation uses the libint2 library for the computation of 2-el integrals
 For citations please refer to: http://libint.valeyev.net

 Your ORCA version has been built with support for libXC version: 4.2.3
 For citations please refer to: https://tddft.org/programs/libxc/

 This ORCA versions uses:
   CBLAS   interface :  Fast vector & matrix operations
   LAPACKE interface :  Fast linear algebra routines
   SCALAPACK package :  Parallel linear algebra routines


Your calculation utilizes the atom-pairwise dispersion correction
with the Becke-Johnson damping scheme (D3BJ)
Cite in your paper:
S.Grimme, S.Ehrlich, L.Goerigk, J Comput Chem, (2011), 32, 1456–1465 
S.Grimme, J.Antony, S.Ehrlich and H.Krieg, J.Chem.Phys., 132, (2010), 154104 
   

----- Orbital basis set information -----
Your calculation utilizes the basis: aug-cc-pVTZ 
    H, B-Ne : Obtained from the ccRepo (grant-hill.group.shef.ac.uk/ccrepo) Feb. 2017
              R. A. Kendall, T. H. Dunning, Jr., R. J. Harrison, J. Chem. Phys. 96, 6796 (1992)
         He : Obtained from the ccRepo (grant-hill.group.shef.ac.uk/ccrepo) Feb. 2017
              D. E. Woon, T. H. Dunning, Jr., J. Chem. Phys. 100, 2975 (1994)
  Li-Be, Na : Obtained from the ccRepo (grant-hill.group.shef.ac.uk/ccrepo) Feb. 2017
              B. P. Prascher, D. E. Woon, K. A. Peterson, T. H. Dunning, Jr., A. K. Wilson, Theor. Chem. Acc. 128, 69 (2011)
         Mg : Obtained from the Peterson Research Group Website (tyr0.chem.wsu.edu/~kipeters) Feb. 2017
              B. P. Prascher, D. E. Woon, K. A. Peterson, T. H. Dunning, Jr., A. K. Wilson, Theor. Chem. Acc. 128, 69 (2011)
      Al-Ar : Obtained from the ccRepo (grant-hill.group.shef.ac.uk/ccrepo) Feb. 2017
              D. E. Woon, T. H. Dunning, Jr., J. Chem. Phys. 98, 1358 (1993)
      Sc-Zn : Obtained from the ccRepo (grant-hill.group.shef.ac.uk/ccrepo) Feb. 2017
              N. B. Balabanov, K. A. Peterson, J. Chem. Phys. 123, 064107 (2005)
              N. B. Balabanov, K. A. Peterson, J. Chem. Phys. 125, 074110 (2006)
      Ga-Kr : Obtained from the ccRepo (grant-hill.group.shef.ac.uk/ccrepo) Feb. 2017
              A. K. Wilson, D. E. Woon, K. A. Peterson, T. H. Dunning, Jr., J. Chem. Phys. 110, 7667 (1999)
     Ag, Au : Obtained from the Peterson Research Group Website (tyr0.chem.wsu.edu/~kipeters) Feb. 2017
              K. A. Peterson, C. Puzzarini, Theor. Chem. Acc. 114, 283 (2005)

----- AuxJ basis set information -----
Your calculation utilizes the auxiliary basis: def2/J
   F. Weigend, Phys. Chem. Chem. Phys. 8, 1057 (2006).

================================================================================
                                        WARNINGS
                       Please study these warnings very carefully!
================================================================================


WARNING: your system is open-shell and RHF/RKS was chosen
  ===> : WILL SWITCH to UHF/UKS


WARNING: Geometry Optimization
  ===> : Switching off AutoStart
         For restart on a previous wavefunction, please use MOREAD

INFO   : the flag for use of LIBINT has been found!

================================================================================
                                       INPUT FILE
================================================================================
NAME = 47_NiO.in
|  1> #
|  2> # 47_NiO tpss/aug-cc-pvtz
|  3> #
|  4> ! tpss d3bj aug-cc-pvtz def2/j opt xyzfile
|  5> 
|  6> *xyz 0 3
|  7> Ni 0.0 0.0 0.0
|  8> O 0.0 0.0 2.0
|  9> *
| 10> 
| 11> %pal
| 12> nprocs 24
| 13> end
| 14> 
| 15> 
| 16>                          ****END OF INPUT****
================================================================================

                       *****************************
                       * Geometry Optimization Run *
                       *****************************

Geometry optimization settings:
Update method            Update   .... BFGS
Choice of coordinates    CoordSys .... Z-matrix Internals
Initial Hessian          InHess   .... Almoef's Model

Convergence Tolerances:
Energy Change            TolE     ....  5.0000e-06 Eh
Max. Gradient            TolMAXG  ....  3.0000e-04 Eh/bohr
RMS Gradient             TolRMSG  ....  1.0000e-04 Eh/bohr
Max. Displacement        TolMAXD  ....  4.0000e-03 bohr
RMS Displacement         TolRMSD  ....  2.0000e-03 bohr
Strict Convergence                ....  False
------------------------------------------------------------------------------
                        ORCA OPTIMIZATION COORDINATE SETUP
------------------------------------------------------------------------------

The optimization will be done in new redundant internal coordinates
Making redundant internal coordinates   ...  (new redundants) done
Evaluating the initial hessian          ...  (Almloef) done
Evaluating the coordinates              ...  done
Calculating the B-matrix                .... done
Calculating the G-matrix                .... done
Diagonalizing the G-matrix              .... done
The first mode is                       ....    0
The number of degrees of freedom        ....    1

    -----------------------------------------------------------------
                    Redundant Internal Coordinates


    -----------------------------------------------------------------
         Definition                    Initial Value    Approx d2E/dq
    -----------------------------------------------------------------
      1. B(O   1,Ni  0)                  2.0000         0.602260   
    -----------------------------------------------------------------

Number of atoms                         .... 2
Number of degrees of freedom            .... 1

         *************************************************************
         *                GEOMETRY OPTIMIZATION CYCLE   1            *
         *************************************************************
---------------------------------
CARTESIAN COORDINATES (ANGSTROEM)
---------------------------------
  Ni     0.000000    0.000000    0.000000
  O      0.000000    0.000000    2.000000

----------------------------
CARTESIAN COORDINATES (A.U.)
----------------------------
  NO LB      ZA    FRAG     MASS         X           Y           Z
   0 Ni   28.0000    0    58.700    0.000000    0.000000    0.000000
   1 O     8.0000    0    15.999    0.000000    0.000000    3.779452

--------------------------------
INTERNAL COORDINATES (ANGSTROEM)
--------------------------------
 Ni     0   0   0     0.000000000000     0.00000000     0.00000000
 O      1   0   0     2.000000000000     0.00000000     0.00000000

---------------------------
INTERNAL COORDINATES (A.U.)
---------------------------
 Ni     0   0   0     0.000000000000     0.00000000     0.00000000
 O      1   0   0     3.779452267843     0.00000000     0.00000000

---------------------
BASIS SET INFORMATION
---------------------
There are 2 groups of distinct atoms

 Group   1 Type Ni  : 116s77p23d3f2g contracted to 8s7p5d3f2g pattern {19191919191911/151515151511/77711/111/11}
 Group   2 Type O   : 19s6p3d2f contracted to 5s4p3d2f pattern {88111/3111/111/11}

Atom   0Ni   basis set group =>   1
Atom   1O    basis set group =>   2
---------------------------------
AUXILIARY/J BASIS SET INFORMATION
---------------------------------
There are 2 groups of distinct atoms

 Group   1 Type Ni  : 19s5p5d3f3g contracted to 8s5p5d2f3g pattern {121111111/11111/11111/21/111}
 Group   2 Type O   : 12s5p4d2f1g contracted to 6s4p3d1f1g pattern {711111/2111/211/2/1}

Atom   0Ni   basis set group =>   1
Atom   1O    basis set group =>   2


           ************************************************************
           *        Program running with 24 parallel MPI-processes    *
           *              working on a common directory               *
           ************************************************************
------------------------------------------------------------------------------
                           ORCA GTO INTEGRAL CALCULATION
                           -- RI-GTO INTEGRALS CHOSEN --
------------------------------------------------------------------------------

                         BASIS SET STATISTICS AND STARTUP INFO

Gaussian basis set:
 # of primitive gaussian shells          ...  251
 # of primitive gaussian functions       ...  567
 # of contracted shells                  ...   39
 # of contracted basis functions         ...  139
 Highest angular momentum                ...    4
 Maximum contraction depth               ...   19
Auxiliary gaussian basis set:
 # of primitive gaussian shells          ...   59
 # of primitive gaussian functions       ...  177
 # of contracted shells                  ...   38
 # of contracted aux-basis functions     ...  138
 Highest angular momentum                ...    4
 Maximum contraction depth               ...   12
Ratio of auxiliary to basis functions    ...  0.99
Integral package used                  ... LIBINT
 One Electron integrals                  ... done
 Ordering auxiliary basis shells         ... done
 Integral threshhold             Thresh  ...  2.500e-11
 Primitive cut-off               TCut    ...  2.500e-12
 Pre-screening matrix                    ... done
 Shell pair data                         ... 
 Ordering of the shell pairs             ... done (   0.000 sec) 780 of 780 pairs
 Determination of significant pairs      ... done (   0.000 sec)
 Creation of shell pair data             ... done (   0.001 sec)
 Storage of shell pair data              ... done (   0.064 sec)
 Shell pair data done in (   0.066 sec)
 Computing two index integrals           ... done
 Cholesky decomposition of the V-matrix  ... done


Timings:
 Total evaluation time                   ...   2.205 sec (  0.037 min)
 One electron matrix time                ...   0.036 sec (  0.001 min) =  1.6%
 Schwartz matrix evaluation time         ...   2.073 sec (  0.035 min) = 94.0%
 Two index repulsion integral time       ...   0.001 sec (  0.000 min) =  0.0%
 Cholesky decomposition of V             ...   0.001 sec (  0.000 min) =  0.0%
 Three index repulsion integral time     ...   0.000 sec (  0.000 min) =  0.0%



           ************************************************************
           *        Program running with 24 parallel MPI-processes    *
           *              working on a common directory               *
           ************************************************************
-------------------------------------------------------------------------------
                                 ORCA SCF
-------------------------------------------------------------------------------

------------
SCF SETTINGS
------------
Hamiltonian:
 Density Functional     Method          .... DFT(GTOs)
 Exchange Functional    Exchange        .... TPSS
 Correlation Functional Correlation     .... TPSS
 LDA part of GGA corr.  LDAOpt          .... PW91-LDA
 Gradients option       PostSCFGGA      .... off
   Density functional embedding theory  .... OFF
   NL short-range parameter             ....  5.000000
 RI-approximation to the Coulomb term is turned on
   Number of auxiliary basis functions  .... 138


General Settings:
 Integral files         IntName         .... 47_NiO
 Hartree-Fock type      HFTyp           .... UHF
 Total Charge           Charge          ....    0
 Multiplicity           Mult            ....    3
 Number of Electrons    NEL             ....   36
 Basis Dimension        Dim             ....  139
 Nuclear Repulsion      ENuc            ....     59.2678473296 Eh

Convergence Acceleration:
 DIIS                   CNVDIIS         .... on
   Start iteration      DIISMaxIt       ....    12
   Startup error        DIISStart       ....  0.200000
   # of expansion vecs  DIISMaxEq       ....     5
   Bias factor          DIISBfac        ....   1.050
   Max. coefficient     DIISMaxC        ....  10.000
 Newton-Raphson         CNVNR           .... off
 SOSCF                  CNVSOSCF        .... off
 Level Shifting         CNVShift        .... on
   Level shift para.    LevelShift      ....    0.2500
   Turn off err/grad.   ShiftErr        ....    0.0010
 Zerner damping         CNVZerner       .... off
 Static damping         CNVDamp         .... on
   Fraction old density DampFac         ....    0.7000
   Max. Damping (<1)    DampMax         ....    0.9800
   Min. Damping (>=0)   DampMin         ....    0.0000
   Turn off err/grad.   DampErr         ....    0.1000
 Fernandez-Rico         CNVRico         .... off

SCF Procedure:
 Maximum # iterations   MaxIter         ....   125
 SCF integral mode      SCFMode         .... Direct
   Integral package                     .... LIBINT
 Reset frequency        DirectResetFreq ....    20
 Integral Threshold     Thresh          ....  2.500e-11 Eh
 Primitive CutOff       TCut            ....  2.500e-12 Eh

Convergence Tolerance:
 Convergence Check Mode ConvCheckMode   .... Total+1el-Energy
 Convergence forced     ConvForced      .... 0
 Energy Change          TolE            ....  1.000e-08 Eh
 1-El. energy change                    ....  1.000e-05 Eh
 DIIS Error             TolErr          ....  5.000e-07


Diagonalization of the overlap matrix:
Smallest eigenvalue                        ... 4.090e-04
Time for diagonalization                   ...    0.005 sec
Threshold for overlap eigenvalues          ... 1.000e-08
Number of eigenvalues below threshold      ... 0
Time for construction of square roots      ...    0.002 sec
Total time needed                          ...    0.008 sec

-------------------
DFT GRID GENERATION
-------------------

General Integration Accuracy     IntAcc      ...  4.340
Radial Grid Type                 RadialGrid  ... Gauss-Chebyshev
Angular Grid (max. acc.)         AngularGrid ... Lebedev-110
Angular grid pruning method      GridPruning ... 3 (G Style)
Weight generation scheme         WeightScheme... Becke
Basis function cutoff            BFCut       ...    1.0000e-11
Integration weight cutoff        WCut        ...    1.0000e-14
Grids for H and He will be reduced by one unit

# of grid points (after initial pruning)     ...   4628 (   0.0 sec)
# of grid points (after weights+screening)   ...   4605 (   0.0 sec)
nearest neighbour list constructed           ...    0.0 sec
Grid point re-assignment to atoms done       ...    0.0 sec
Grid point division into batches done        ...    0.0 sec
Reduced shell lists constructed in    0.0 sec

Total number of grid points                  ...     4605
Total number of batches                      ...       73
Average number of points per batch           ...       63
Average number of grid points per atom       ...     2302
Average number of shells per batch           ...    21.60 (55.38%)
Average number of basis functions per batch  ...    64.80 (46.62%)
Average number of large shells per batch     ...    16.00 (74.07%)
Average number of large basis fcns per batch ...    45.60 (70.37%)
Maximum spatial batch extension              ...  17.39, 26.34, 14.81 au
Average spatial batch extension              ...   0.92,  1.21,  0.81 au

Time for grid setup =    0.023 sec

------------------------------
INITIAL GUESS: MODEL POTENTIAL
------------------------------
Loading Hartree-Fock densities                     ... done
Calculating cut-offs                               ... done
Setting up the integral package                    ... done
Initializing the effective Hamiltonian             ... done
Starting the Coulomb interaction                   ... done (   0.0 sec)
Reading the grid                                   ... done
Mapping shells                                     ... done
Starting the XC term evaluation                    ... done (   0.0 sec)
  promolecular density results
     # of electrons  =     36.000362594
     EX              =    -69.559376658
     EC              =     -1.527790117
     EX+EC           =    -71.087166775
Transforming the Hamiltonian                       ... done (   0.0 sec)
Diagonalizing the Hamiltonian                      ... done (   0.0 sec)
Back transforming the eigenvectors                 ... done (   0.0 sec)
Now organizing SCF variables                       ... done
                      ------------------
                      INITIAL GUESS DONE (   0.1 sec)
                      ------------------
--------------
SCF ITERATIONS
--------------
ITER       Energy         Delta-E        Max-DP      RMS-DP      [F,P]     Damp
               ***  Starting incremental Fock matrix formation  ***
  0  -1583.1632811765   0.000000000000 0.23541838  0.00261470  0.4888699 0.7000
  1  -1583.2314988982  -0.068217721693 0.29069206  0.00237983  0.2763828 0.7000
  2  -1583.2679542968  -0.036455398663 0.12145547  0.00129808  0.2662360 0.7000
                               ***Turning on DIIS***
  3  -1583.3397871074  -0.071832810555 0.07669764  0.00095067  0.1221007 0.7000
  4  -1583.4066430972  -0.066855989811 0.20733927  0.00258440  0.0735647 0.0000
  5  -1583.5538527300  -0.147209632830 0.04986921  0.00060194  0.0824385 0.0000
  6  -1583.5690381849  -0.015185454854 0.02829484  0.00037909  0.0363558 0.0000
  7  -1583.5736577729  -0.004619587999 0.01481832  0.00035692  0.0345996 0.0000
  8  -1583.5761895572  -0.002531784361 0.01332795  0.00015114  0.0064054 0.0000
  9  -1583.5767990377  -0.000609480465 0.01033635  0.00011743  0.0057081 0.0000
 10  -1583.5771912004  -0.000392162685 0.00999167  0.00010350  0.0039836 0.0000
 11  -1583.5774639125  -0.000272712129 0.01015810  0.00008569  0.0028734 0.0000
 12  -1583.5776357195  -0.000171807022 0.01043839  0.00008744  0.0027760 0.0000
 13  -1583.5777844973  -0.000148777795 0.00847733  0.00006827  0.0021731 0.0000
 14  -1583.5778875812  -0.000103083841 0.00912827  0.00007234  0.0018531 0.0000
 15  -1583.5779795691  -0.000091987901 0.00862083  0.00006519  0.0017205 0.0000
 16  -1583.5780548459  -0.000075276804 0.00858858  0.00006713  0.0016773 0.0000
 17  -1583.5781236064  -0.000068760531 0.00640861  0.00004824  0.0017763 0.0000
 18  -1583.5781714655  -0.000047859115 0.00884940  0.00006935  0.0014364 0.0000
 19  -1583.5782269650  -0.000055499501 0.00647498  0.00005252  0.0015303 0.0000
               *** Restarting incremental Fock matrix formation ***
                                   *** Resetting DIIS ***
 20  -1583.5782708606  -0.000043895565 0.00647178  0.00004012  0.0018692 0.0000
 21  -1583.5782833733  -0.000012512732 0.00382265  0.00002979  0.0034026 0.0000
 22  -1583.5783156915  -0.000032318187 0.00353145  0.00002652  0.0022290 0.0000
 23  -1583.5783374069  -0.000021715345 0.00316610  0.00002482  0.0015813 0.0000
 24  -1583.5783547906  -0.000017383791 0.00319772  0.00002489  0.0012539 0.0000
 25  -1583.5783709917  -0.000016201048 0.00458845  0.00003638  0.0012964 0.0000
 26  -1583.5783938629  -0.000022871251 0.00334573  0.00002692  0.0012838 0.0000
 27  -1583.5784100072  -0.000016144274 0.00430996  0.00003346  0.0010115 0.0000
 28  -1583.5784286733  -0.000018666030 0.00380356  0.00003062  0.0010908 0.0000
 29  -1583.5784453239  -0.000016650645 0.01902952  0.00014390  0.0008442 0.0000
 30  -1583.5785058760  -0.000060552122 0.00173630  0.00001455  0.0017117 0.0000
 31  -1583.5785156562  -0.000009780163 0.02300466  0.00017856  0.0008349 0.0000
 32  -1583.5785704107  -0.000054754551 0.00280597  0.00002331  0.0013226 0.0000
 33  -1583.5785580934   0.000012317284 0.00146548  0.00001117  0.0024998 0.0000
 34  -1583.5785589673  -0.000000873902 0.00084145  0.00000624  0.0018719 0.0000
 35  -1583.5785596100  -0.000000642691 0.00071822  0.00000512  0.0015141 0.0000
 36  -1583.5785588030   0.000000807030 0.00179873  0.00001341  0.0014507 0.0000
 37  -1583.5785651294  -0.000006326369 0.00940464  0.00005666  0.0008872 0.0000
 38  -1583.5785488768   0.000016252574 0.00126853  0.00000793  0.0041528 0.0000
 39  -1583.5785673525  -0.000018475725 0.00144114  0.00000833  0.0027278 0.0000
               *** Restarting incremental Fock matrix formation ***
                                   *** Resetting DIIS ***
 40  -1583.5785773979  -0.000010045339 0.00509493  0.00003445  0.0014369 0.0000
 41  -1583.5785218805   0.000055517373 0.00115113  0.00001137  0.0074250 0.0000
 42  -1583.5785526941  -0.000030813575 0.00097315  0.00000746  0.0044427 0.0000
 43  -1583.5785643933  -0.000011699214 0.00092189  0.00000620  0.0036277 0.0000
 44  -1583.5785716241  -0.000007230816 0.00083807  0.00000533  0.0031378 0.0000
 45  -1583.5785768485  -0.000005224367 0.00312353  0.00001964  0.0027421 0.0000
 46  -1583.5785899062  -0.000013057745 0.00166131  0.00001026  0.0014296 0.0000
 47  -1583.5785901281  -0.000000221916 0.00101035  0.00000743  0.0013223 0.0000
 48  -1583.5785918310  -0.000001702872 0.00080651  0.00000641  0.0012548 0.0000
 49  -1583.5785934724  -0.000001641429 0.00080309  0.00000590  0.0011386 0.0000
 50  -1583.5785951162  -0.000001643813 0.01298325  0.00007391  0.0009786 0.0000
 51  -1583.5785434048   0.000051711476 0.00087487  0.00000611  0.0058675 0.0000
 52  -1583.5785653943  -0.000021989551 0.00083087  0.00000523  0.0043104 0.0000
 53  -1583.5785778477  -0.000012453360 0.00071920  0.00000446  0.0033767 0.0000
 54  -1583.5785855215  -0.000007673816 0.00059937  0.00000371  0.0027608 0.0000
 55  -1583.5785903646  -0.000004843075 0.00178791  0.00001190  0.0023126 0.0000
 56  -1583.5786024749  -0.000012110343 0.00738225  0.00004205  0.0006721 0.0000
 57  -1583.5785860188   0.000016456119 0.00020147  0.00000272  0.0042399 0.0000
 58  -1583.5785910122  -0.000004993376 0.00021449  0.00000179  0.0032856 0.0000
 59  -1583.5785935241  -0.000002511969 0.00020026  0.00000146  0.0029068 0.0000
               *** Restarting incremental Fock matrix formation ***
                                   *** Resetting DIIS ***
 60  -1583.5785983155  -0.000004791364 0.00793113  0.00006304  0.0026573 0.0000
 61  -1583.5783780179   0.000220297620 0.00057875  0.00001561  0.0140117 0.0000
 62  -1583.5784921330  -0.000114115168 0.00092220  0.00000776  0.0080877 0.0000
 63  -1583.5785352850  -0.000043151996 0.00094959  0.00000639  0.0063274 0.0000
 64  -1583.5785606451  -0.000025360104 0.00088689  0.00000557  0.0052346 0.0000
 65  -1583.5785774078  -0.000016762640 0.00329172  0.00002389  0.0043624 0.0000
 66  -1583.5786108382  -0.000033430392 0.00168257  0.00001104  0.0012660 0.0000
 67  -1583.5786079844   0.000002853799 0.00094036  0.00000586  0.0017553 0.0000
 68  -1583.5786068952   0.000001089144 0.00071499  0.00000407  0.0017618 0.0000
 69  -1583.5786056370   0.000001258217 0.00055798  0.00000315  0.0018784 0.0000
 70  -1583.5786039509   0.000001686147 0.00043723  0.00000362  0.0020446 0.0000
 71  -1583.5786006939   0.000003256950 0.00109820  0.00001019  0.0024480 0.0000
 72  -1583.5786100981  -0.000009404195 0.00192019  0.00001561  0.0013496 0.0000
 73  -1583.5786022698   0.000007828310 0.00067590  0.00000686  0.0038060 0.0000
 74  -1583.5786067612  -0.000004491392 0.00037324  0.00000331  0.0020633 0.0000
 75  -1583.5786089170  -0.000002155774 0.00044587  0.00000286  0.0015211 0.0000
 76  -1583.5786105157  -0.000001598677 0.00079842  0.00000522  0.0011800 0.0000
 77  -1583.5786129553  -0.000002439682 0.00629406  0.00003576  0.0007102 0.0000
 78  -1583.5785854169   0.000027538467 0.00042231  0.00000378  0.0041664 0.0000
 79  -1583.5785956260  -0.000010209089 0.00039726  0.00000325  0.0033419 0.0000
               *** Restarting incremental Fock matrix formation ***
                                   *** Resetting DIIS ***
 80  -1583.5786029796  -0.000007353668 0.00825758  0.00006749  0.0027173 0.0000
 81  -1583.5783524507   0.000250528878 0.00060608  0.00001606  0.0146773 0.0000
 82  -1583.5784756526  -0.000123201881 0.00069477  0.00000747  0.0086082 0.0000
 83  -1583.5785233378  -0.000047685184 0.00076703  0.00000596  0.0068349 0.0000
 84  -1583.5785509863  -0.000027648524 0.00073247  0.00000515  0.0057537 0.0000
 85  -1583.5785691935  -0.000018207149 0.00369862  0.00002908  0.0049050 0.0000
 86  -1583.5786132579  -0.000044064443 0.00133786  0.00000951  0.0015138 0.0000
 87  -1583.5786105432   0.000002714747 0.00078533  0.00000513  0.0017495 0.0000
 88  -1583.5786084980   0.000002045165 0.00057702  0.00000342  0.0018885 0.0000
 89  -1583.5786059911   0.000002506868 0.00043994  0.00000253  0.0021063 0.0000
 90  -1583.5786038386   0.000002152569 0.00041861  0.00000479  0.0022806 0.0000
 91  -1583.5785986886   0.000005149938 0.00037231  0.00000561  0.0028075 0.0000
 92  -1583.5786050328  -0.000006344135 0.00129111  0.00001077  0.0025070 0.0000
 93  -1583.5786142772  -0.000009244431 0.00543502  0.00003510  0.0005768 0.0000
 94  -1583.5785738195   0.000040457693 0.00032262  0.00000266  0.0044593 0.0000
 95  -1583.5785818084  -0.000007988926 0.00034813  0.00000261  0.0038998 0.0000
 96  -1583.5785882996  -0.000006491109 0.00026450  0.00000220  0.0034334 0.0000
 97  -1583.5785917290  -0.000003429489 0.00009688  0.00000208  0.0033649 0.0000
 98  -1583.5785892995   0.000002429528 0.00405965  0.00003311  0.0034174 0.0000
 99  -1583.5785880842   0.000001215268 0.00163642  0.00001595  0.0059841 0.0000
               *** Restarting incremental Fock matrix formation ***
                                   *** Resetting DIIS ***
100  -1583.5785868535   0.000001230760 0.01204404  0.00010180  0.0038551 0.0000
101  -1583.5779984873   0.000588366198 0.00091106  0.00002442  0.0211934 0.0000
102  -1583.5783077004  -0.000309213081 0.00151799  0.00001483  0.0117923 0.0000
103  -1583.5784413511  -0.000133650728 0.00154843  0.00001257  0.0087575 0.0000
104  -1583.5785164642  -0.000075113101 0.00140863  0.00001077  0.0065288 0.0000
105  -1583.5785613510  -0.000044886826 0.00325798  0.00002632  0.0048118 0.0000
106  -1583.5786165271  -0.000055176061 0.00781563  0.00005354  0.0006284 0.0000
107  -1583.5785409680   0.000075559133 0.00012228  0.00000160  0.0068191 0.0000
108  -1583.5785474243  -0.000006456300 0.00014452  0.00000136  0.0062600 0.0000
109  -1583.5785524821  -0.000005057843 0.00014229  0.00000118  0.0059321 0.0000
110  -1583.5785566842  -0.000004202125 0.00011256  0.00000103  0.0057377 0.0000
111  -1583.5785591334  -0.000002449210 0.01173481  0.00009904  0.0057613 0.0000
112  -1583.5781573115   0.000401821957 0.00074307  0.00002167  0.0189262 0.0000
113  -1583.5783479890  -0.000190677538 0.00067781  0.00001024  0.0117662 0.0000
114  -1583.5784379604  -0.000089971382 0.00092918  0.00000853  0.0094607 0.0000
115  -1583.5784949872  -0.000057026792 0.00095352  0.00000769  0.0078600 0.0000
116  -1583.5785337738  -0.000038786617 0.00461161  0.00003868  0.0065190 0.0000
117  -1583.5786123590  -0.000078585196 0.00177793  0.00001509  0.0023606 0.0000
118  -1583.5786047763   0.000007582724 0.00080266  0.00000700  0.0028781 0.0000
119  -1583.5786019086   0.000002867718 0.00055374  0.00000398  0.0028235 0.0000
               *** Restarting incremental Fock matrix formation ***
                                   *** Resetting DIIS ***
120  -1583.5786004778   0.000001430721 0.00917694  0.00007819  0.0029288 0.0000
121  -1583.5782606288   0.000339848995 0.00068220  0.00001848  0.0160827 0.0000
122  -1583.5784333211  -0.000172692242 0.00105612  0.00001093  0.0091101 0.0000
123  -1583.5785083715  -0.000075050443 0.00110569  0.00000922  0.0069015 0.0000
124  -1583.5785509089  -0.000042537358 0.00101917  0.00000795  0.0052672 0.0000

               *****************************************************
               *                      ERROR                        *
               *        SCF NOT CONVERGED AFTER 125 CYCLES         *
               *****************************************************

Setting up the final grid:

General Integration Accuracy     IntAcc      ...  4.670
Radial Grid Type                 RadialGrid  ... Gauss-Chebyshev
Angular Grid (max. acc.)         AngularGrid ... Lebedev-302
Angular grid pruning method      GridPruning ... 3 (G Style)
Weight generation scheme         WeightScheme... Becke
Basis function cutoff            BFCut       ...    1.0000e-11
Integration weight cutoff        WCut        ...    1.0000e-14
Grids for H and He will be reduced by one unit

# of grid points (after initial pruning)     ...  15876 (   0.0 sec)
# of grid points (after weights+screening)   ...  15842 (   0.0 sec)
nearest neighbour list constructed           ...    0.0 sec
Grid point re-assignment to atoms done       ...    0.0 sec
Grid point division into batches done        ...    0.1 sec
Reduced shell lists constructed in    0.1 sec

Total number of grid points                  ...    15842
Total number of batches                      ...      248
Average number of points per batch           ...       63
Average number of grid points per atom       ...     7921
Average number of shells per batch           ...    16.25 (41.67%)
Average number of basis functions per batch  ...    37.58 (27.04%)
Average number of large shells per batch     ...     9.58 (58.97%)
Average number of large basis fcns per batch ...    21.58 (57.43%)
Maximum spatial batch extension              ...  22.45, 25.48, 16.11 au
Average spatial batch extension              ...   0.80,  0.83,  0.62 au

Final grid set up in    0.1 sec
Final integration                            ... done (   0.2 sec)
Change in XC energy                          ...     0.002219127
Integrated number of electrons               ...    36.000017672
Previous integrated no of electrons          ...    36.000408036

---------------
SCF CONVERGENCE
---------------

  Last Energy change         ...   -4.2537e-05  Tolerance :   1.0000e-08
  Last MAX-Density change    ...    1.0192e-03  Tolerance :   1.0000e-07
  Last RMS-Density change    ...    7.9525e-06  Tolerance :   5.0000e-09
  Last DIIS Error            ...    5.2672e-03  Tolerance :   5.0000e-07

             **** DENSITY FILE WAS UPDATED (47_NiO.scfp) ****
             **** ENERGY FILE WAS UPDATED (47_NiO.en.tmp) ****

     --------------------------------------------------------------------
                                      WARNING
     The wavefunction IS NOT YET CONVERGED! It shows however signs of
     convergence. Therefore the wavefunction will be stored and can be
     used as input for another calculation. 
     DO NOT USE THIS WAVEFUNCTION  FOR ANYHTING ELSE. It is NOT RELIABLE
     --------------------------------------------------------------------

-------
TIMINGS
-------

Total SCF time: 0 days 0 hours 0 min 20 sec 

Total time                  ....      20.257 sec
Sum of individual times     ....      19.774 sec  ( 97.6%)

Fock matrix formation       ....      18.608 sec  ( 91.9%)
  Split-RI-J                ....      15.540 sec  ( 83.5% of F)
  XC integration            ....       1.910 sec  ( 10.3% of F)
    Basis function eval.    ....       0.224 sec  ( 11.7% of XC)
    Density eval.           ....       0.281 sec  ( 14.7% of XC)
    XC-Functional eval.     ....       0.064 sec  (  3.4% of XC)
    XC-Potential eval.      ....       0.669 sec  ( 35.0% of XC)
Diagonalization             ....       0.613 sec  (  3.0%)
Density matrix formation    ....       0.076 sec  (  0.4%)
Population analysis         ....       0.000 sec  (  0.0%)
Initial guess               ....       0.128 sec  (  0.6%)
Orbital Transformation      ....       0.000 sec  (  0.0%)
Orbital Orthonormalization  ....       0.000 sec  (  0.0%)
DIIS solution               ....       0.221 sec  (  1.1%)
Grid generation             ....       0.129 sec  (  0.6%)


-------------------------------------------------------------------------------
                          DFT DISPERSION CORRECTION                            
                                                                               
                              DFTD3 V3.1  Rev 1                                
                          USING Becke-Johnson damping                          
-------------------------------------------------------------------------------
The TPSS functional is recognized
Active option DFTDOPT                   ...         4   

molecular C6(AA) [au] = 636.347141 


            DFT-D V3
 parameters
 s6 scaling factor         :     1.0000 
 a1 scaling factor         :     0.4535 
 s8 scaling factor         :     1.9435 
 a2 scaling factor         :     4.4752 
 ad hoc parameters k1-k3   :    16.0000     1.3333    -4.0000 

 Edisp/kcal,au: -0.620245191602  -0.000988423524 
 E6   /kcal   :  -0.249552345 
 E8   /kcal   :  -0.370692847 
 % E8         :  59.765533309 

-------------------------   ----------------
Dispersion correction           -0.000988424
-------------------------   ----------------


-------------------------   --------------------
FINAL SINGLE POINT ENERGY     -1583.577320205428   (Wavefunction not fully converged!)
-------------------------   --------------------



           ************************************************************
           *        Program running with 24 parallel MPI-processes    *
           *              working on a common directory               *
           ************************************************************
------------------------------------------------------------------------------
                         ORCA SCF GRADIENT CALCULATION
------------------------------------------------------------------------------

Gradient of the Kohn-Sham DFT energy:
Kohn-Sham wavefunction type      ... UKS
Hartree-Fock exchange scaling    ...    0.000
Number of operators              ...    2
Number of atoms                  ...    2
Basis set dimensions             ...  139
Integral neglect threshold       ... 2.5e-11
Integral primitive cutoff        ... 2.5e-12

Nuclear repulsion gradient       ... done
One Electron Gradient            ... done
Pre-screening matrix             ... done
RI-J gradient                    ... done
Exchange-correlation gradient    ... done
Dispersion correction            ... done

------------------
CARTESIAN GRADIENT
------------------

   1   Ni  :    0.000000001   -0.000000003   -0.086382567
   2   O   :    0.000000002    0.000000002    0.086246143

Difference to translation invariance:
           :    0.0000000026   -0.0000000015   -0.0001364248

Norm of the cartesian gradient     ...    0.1220669697
RMS gradient                       ...    0.0498336317
MAX gradient                       ...    0.0863825675

-------
TIMINGS
-------

Total SCF gradient time            ...        4.240 sec

One electron gradient       ....       0.056 sec  (  1.3%)
Prescreening matrices       ....       3.386 sec  ( 79.9%)
RI-J Coulomb gradient       ....       0.229 sec  (  5.4%)
XC gradient                 ....       0.052 sec  (  1.2%)
------------------------------------------------------------------------------
                         ORCA GEOMETRY RELAXATION STEP
------------------------------------------------------------------------------

Reading the OPT-File                    .... done
Getting information on internals        .... done
Copying old internal coords+grads       .... done
Making the new internal coordinates     .... (new redundants).... done
Validating the new internal coordinates .... (new redundants).... done
Calculating the B-matrix                .... done
Calculating the G,G- and P matrices     .... done
Transforming gradient to internals      .... done
Projecting the internal gradient        .... done
Number of atoms                         ....   2
Number of internal coordinates          ....   1
Current Energy                          .... -1583.577320205 Eh
Current gradient norm                   ....     0.122066970 Eh/bohr
Maximum allowed component of the step   ....  0.300
Current trust radius                    ....  0.300
Evaluating the initial hessian          ....  (Almloef) done
Projecting the Hessian                  .... done
Forming the augmented Hessian           .... done
Diagonalizing the augmented Hessian     .... done
Last element of RFO vector              ....  0.990275182
Lowest eigenvalues of augmented Hessian:
 -0.012126192
Length of the computed step             ....  0.140488708
The final length of the internal step   ....  0.140488708
Converting the step to cartesian space:
 Initial RMS(Int)=    0.1404887076
Transforming coordinates:
 Iter   0:  RMS(Cart)=    0.0405555966 RMS(Int)=    0.1404887076
 Iter   1:  RMS(Cart)=    0.0000000000 RMS(Int)=    0.0000000000
done
Storing new coordinates                 .... done

                                .--------------------.
          ----------------------|Geometry convergence|-------------------------
          Item                value                   Tolerance       Converged
          ---------------------------------------------------------------------
          RMS gradient        0.0863143551            0.0001000000      NO
          MAX gradient        0.0863143551            0.0003000000      NO
          RMS step            0.1404887076            0.0020000000      NO
          MAX step            0.1404887076            0.0040000000      NO
          ........................................................
          Max(Bonds)      0.0743      Max(Angles)    0.00
          Max(Dihed)        0.00      Max(Improp)    0.00
          ---------------------------------------------------------------------

The optimization has not yet converged - more geometry cycles are needed


    ---------------------------------------------------------------------------
                         Redundant Internal Coordinates
                            (Angstroem and degrees)

        Definition                    Value    dE/dq     Step     New-Value
    ----------------------------------------------------------------------------
     1. B(O   1,Ni  0)                2.0000  0.086314 -0.0743    1.9257   
    ----------------------------------------------------------------------------

         *************************************************************
         *                GEOMETRY OPTIMIZATION CYCLE   2            *
         *************************************************************
---------------------------------
CARTESIAN COORDINATES (ANGSTROEM)
---------------------------------
  Ni     0.000000    0.000000    0.037172
  O      0.000000    0.000000    1.962828

----------------------------
CARTESIAN COORDINATES (A.U.)
----------------------------
  NO LB      ZA    FRAG     MASS         X           Y           Z
   0 Ni   28.0000    0    58.700    0.000000    0.000000    0.070244
   1 O     8.0000    0    15.999    0.000000    0.000000    3.709208

--------------------------------
INTERNAL COORDINATES (ANGSTROEM)
--------------------------------
 Ni     0   0   0     0.000000000000     0.00000000     0.00000000
 O      1   0   0     1.925656577889     0.00000000     0.00000000

---------------------------
INTERNAL COORDINATES (A.U.)
---------------------------
 Ni     0   0   0     0.000000000000     0.00000000     0.00000000
 O      1   0   0     3.638963560194     0.00000000     0.00000000



           ************************************************************
           *        Program running with 24 parallel MPI-processes    *
           *              working on a common directory               *
           ************************************************************
 One Electron integrals                  ... done
 Pre-screening matrix                    ... done


           ************************************************************
           *        Program running with 24 parallel MPI-processes    *
           *              working on a common directory               *
           ************************************************************

Diagonalization of the overlap matrix:
Smallest eigenvalue                        ... 3.682e-04
Time for diagonalization                   ...    0.005 sec
Threshold for overlap eigenvalues          ... 1.000e-08
Number of eigenvalues below threshold      ... 0
Time for construction of square roots      ...    0.002 sec
Total time needed                          ...    0.007 sec

-------------------
DFT GRID GENERATION
-------------------

General Integration Accuracy     IntAcc      ...  4.340
Radial Grid Type                 RadialGrid  ... Gauss-Chebyshev
Angular Grid (max. acc.)         AngularGrid ... Lebedev-110
Angular grid pruning method      GridPruning ... 3 (G Style)
Weight generation scheme         WeightScheme... Becke
Basis function cutoff            BFCut       ...    1.0000e-11
Integration weight cutoff        WCut        ...    1.0000e-14
Grids for H and He will be reduced by one unit

# of grid points (after initial pruning)     ...   4628 (   0.0 sec)
# of grid points (after weights+screening)   ...   4604 (   0.0 sec)
nearest neighbour list constructed           ...    0.0 sec
Grid point re-assignment to atoms done       ...    0.0 sec
Grid point division into batches done        ...    0.0 sec
Reduced shell lists constructed in    0.0 sec

Total number of grid points                  ...     4604
Total number of batches                      ...       73
Average number of points per batch           ...       63
Average number of grid points per atom       ...     2302
Average number of shells per batch           ...    21.60 (55.38%)
Average number of basis functions per batch  ...    64.80 (46.62%)
Average number of large shells per batch     ...    16.80 (77.78%)
Average number of large basis fcns per batch ...    46.40 (71.60%)
Maximum spatial batch extension              ...  17.39, 26.34, 14.81 au
Average spatial batch extension              ...   0.92,  1.21,  0.81 au

Time for grid setup =    0.019 sec

--------------
SCF ITERATIONS
--------------
ITER       Energy         Delta-E        Max-DP      RMS-DP      [F,P]     Damp
               ***  Starting incremental Fock matrix formation  ***
  0  -1583.5903509393   0.000000000000 0.00166006  0.00004545  0.0097241 0.7000
  1  -1583.5904357589  -0.000084819632 0.00135405  0.00003921  0.0065966 0.7000
                               ***Turning on DIIS***
  2  -1583.5905026350  -0.000066876048 0.00444723  0.00010222  0.0046223 0.0000
  3  -1583.5906677017  -0.000165066680 0.00198420  0.00002231  0.0012818 0.0000
  4  -1583.5906582359   0.000009465765 0.00111726  0.00001494  0.0038435 0.0000
  5  -1583.5906769141  -0.000018678156 0.00586461  0.00004931  0.0005661 0.0000
  6  -1583.5906199991   0.000056914971 0.00051710  0.00000460  0.0056984 0.0000
  7  -1583.5906372475  -0.000017248436 0.00047370  0.00000383  0.0048677 0.0000
  8  -1583.5906475283  -0.000010280763 0.00045352  0.00000355  0.0043466 0.0000
  9  -1583.5906559358  -0.000008407482 0.00010422  0.00000244  0.0037294 0.0000
 10  -1583.5906554911   0.000000444663 0.00252693  0.00002198  0.0034425 0.0000
 11  -1583.5906752528  -0.000019761681 0.00172450  0.00001703  0.0029513 0.0000
 12  -1583.5906659120   0.000009340791 0.00035017  0.00000543  0.0029978 0.0000
 13  -1583.5906676805  -0.000001768534 0.00014306  0.00000220  0.0024136 0.0000
 14  -1583.5906693935  -0.000001712918 0.00015168  0.00000180  0.0021183 0.0000
 15  -1583.5906721292  -0.000002735767 0.00314759  0.00002743  0.0017911 0.0000
 16  -1583.5906452542   0.000026875039 0.00070148  0.00001154  0.0066761 0.0000
 17  -1583.5906560193  -0.000010765155 0.00026848  0.00000426  0.0037108 0.0000
 18  -1583.5906648845  -0.000008865150 0.00034924  0.00000334  0.0025474 0.0000
 19  -1583.5906704819  -0.000005597412 0.00033852  0.00000275  0.0020067 0.0000
               *** Restarting incremental Fock matrix formation ***
                                   *** Resetting DIIS ***
 20  -1583.5906780257  -0.000007543781 0.00514431  0.00004357  0.0015661 0.0000
 21  -1583.5905769733   0.000101052426 0.00038030  0.00001024  0.0088455 0.0000
 22  -1583.5906255595  -0.000048586246 0.00044597  0.00000546  0.0050533 0.0000
 23  -1583.5906470909  -0.000021531429 0.00048651  0.00000433  0.0039414 0.0000
 24  -1583.5906598873  -0.000012796354 0.00045094  0.00000362  0.0031453 0.0000
 25  -1583.5906682805  -0.000008393250 0.00185502  0.00001577  0.0025516 0.0000
 26  -1583.5906839435  -0.000015662999 0.00276860  0.00001993  0.0004077 0.0000
 27  -1583.5906716547   0.000012288865 0.00005967  0.00000077  0.0027927 0.0000
 28  -1583.5906730884  -0.000001433754 0.00007136  0.00000066  0.0025247 0.0000
 29  -1583.5906741225  -0.000001034063 0.00006903  0.00000057  0.0023693 0.0000
 30  -1583.5906747929  -0.000000670426 0.00004041  0.00000095  0.0022951 0.0000
 31  -1583.5906743930   0.000000399894 0.00455235  0.00003898  0.0024994 0.0000
 32  -1583.5906136453   0.000060747761 0.00025982  0.00000807  0.0070330 0.0000
 33  -1583.5906441637  -0.000030518441 0.00030856  0.00000425  0.0045376 0.0000
 34  -1583.5906586942  -0.000014530454 0.00038897  0.00000356  0.0035651 0.0000
 35  -1583.5906679051  -0.000009210910 0.00048159  0.00000419  0.0028729 0.0000
 36  -1583.5906754247  -0.000007519678 0.00142516  0.00001306  0.0023880 0.0000
 37  -1583.5906832089  -0.000007784125 0.00094293  0.00000926  0.0017845 0.0000
 38  -1583.5906822016   0.000001007241 0.00020311  0.00000286  0.0013591 0.0000
 39  -1583.5906830462  -0.000000844543 0.00008524  0.00000114  0.0011870 0.0000
               *** Restarting incremental Fock matrix formation ***
                                   *** Resetting DIIS ***
 40  -1583.5906815436   0.000001502520 0.00332845  0.00002862  0.0010798 0.0000
 41  -1583.5906366920   0.000044851640 0.00025837  0.00000696  0.0058881 0.0000
 42  -1583.5906597546  -0.000023062552 0.00038655  0.00000416  0.0032452 0.0000
 43  -1583.5906702243  -0.000010469741 0.00039510  0.00000341  0.0024150 0.0000
 44  -1583.5906763126  -0.000006088247 0.00035565  0.00000286  0.0018163 0.0000
 45  -1583.5906801467  -0.000003834164 0.00091303  0.00000769  0.0013631 0.0000
 46  -1583.5906858375  -0.000005690786 0.00174004  0.00001298  0.0001524 0.0000
 47  -1583.5906814820   0.000004355460 0.00004116  0.00000074  0.0017795 0.0000
 48  -1583.5906822572  -0.000000775196 0.00004764  0.00000052  0.0015311 0.0000
 49  -1583.5906826907  -0.000000433487 0.00004787  0.00000043  0.0014090 0.0000
 50  -1583.5906829581  -0.000000267410 0.00004607  0.00000047  0.0013385 0.0000
 51  -1583.5906830153  -0.000000057159 0.00186272  0.00001609  0.0013627 0.0000
 52  -1583.5906771974   0.000005817881 0.00016120  0.00000354  0.0027016 0.0000
 53  -1583.5906801011  -0.000002903735 0.00007617  0.00000156  0.0018099 0.0000
 54  -1583.5906820100  -0.000001908817 0.00013461  0.00000132  0.0014555 0.0000
 55  -1583.5906834841  -0.000001474124 0.00028837  0.00000246  0.0011806 0.0000
 56  -1583.5906853569  -0.000001872856 0.00209111  0.00001599  0.0006137 0.0000
 57  -1583.5906796596   0.000005697354 0.00016777  0.00000156  0.0017702 0.0000
 58  -1583.5906813808  -0.000001721236 0.00017711  0.00000148  0.0015088 0.0000
 59  -1583.5906825610  -0.000001180185 0.00016134  0.00000130  0.0012622 0.0000
               *** Restarting incremental Fock matrix formation ***
                                   *** Resetting DIIS ***
 60  -1583.5906818794   0.000000681573 0.00317526  0.00002702  0.0010661 0.0000
 61  -1583.5906422084   0.000039671072 0.00024937  0.00000654  0.0057772 0.0000
 62  -1583.5906618365  -0.000019628155 0.00024337  0.00000326  0.0032824 0.0000
 63  -1583.5906699771  -0.000008140558 0.00027020  0.00000256  0.0025236 0.0000
 64  -1583.5906748137  -0.000004836637 0.00025235  0.00000214  0.0020594 0.0000
 65  -1583.5906780383  -0.000003224616 0.00112052  0.00000975  0.0017058 0.0000
 66  -1583.5906852610  -0.000007222651 0.00168321  0.00001297  0.0002619 0.0000
 67  -1583.5906797765   0.000005484516 0.00001618  0.00000015  0.0016497 0.0000
 68  -1583.5906799765  -0.000000200061 0.00001866  0.00000015  0.0016200 0.0000
 69  -1583.5906801268  -0.000000150256 0.00000457  0.00000008  0.0015950 0.0000
 70  -1583.5906801078   0.000000019015 0.00004602  0.00000051  0.0015973 0.0000
 71  -1583.5906795529   0.000000554915 0.00448969  0.00003872  0.0016794 0.0000
 72  -1583.5906036447   0.000075908195 0.00033987  0.00000926  0.0080021 0.0000
 73  -1583.5906418595  -0.000038214820 0.00038637  0.00000491  0.0044757 0.0000
 74  -1583.5906587413  -0.000016881807 0.00042690  0.00000397  0.0033804 0.0000
 75  -1583.5906687305  -0.000009989189 0.00040034  0.00000338  0.0026863 0.0000
 76  -1583.5906752596  -0.000006529116 0.00141828  0.00001230  0.0021315 0.0000
 77  -1583.5906853849  -0.000010125265 0.00219892  0.00001720  0.0002183 0.0000
 78  -1583.5906766602   0.000008724607 0.00002955  0.00000035  0.0022558 0.0000
 79  -1583.5906772356  -0.000000575361 0.00003731  0.00000034  0.0021518 0.0000
               *** Restarting incremental Fock matrix formation ***
                                   *** Resetting DIIS ***
 80  -1583.5906760251   0.000001210477 0.00595913  0.00005128  0.0020576 0.0000
 81  -1583.5905304414   0.000145583729 0.00046205  0.00001257  0.0111095 0.0000
 82  -1583.5906066841  -0.000076242696 0.00054390  0.00000657  0.0061910 0.0000
 83  -1583.5906374553  -0.000030771204 0.00057912  0.00000530  0.0046572 0.0000
 84  -1583.5906550328  -0.000017577524 0.00053226  0.00000446  0.0037060 0.0000
 85  -1583.5906662044  -0.000011171524 0.00185931  0.00001605  0.0029775 0.0000
 86  -1583.5906843235  -0.000018119166 0.00327689  0.00002552  0.0003107 0.0000
 87  -1583.5906640433   0.000020280252 0.00005565  0.00000054  0.0029866 0.0000
 88  -1583.5906652134  -0.000001170089 0.00006516  0.00000056  0.0029153 0.0000
 89  -1583.5906663089  -0.000001095589 0.00004529  0.00000037  0.0028353 0.0000
 90  -1583.5906669275  -0.000000618521 0.00003379  0.00000062  0.0027775 0.0000
 91  -1583.5906660183   0.000000909197 0.00746077  0.00006416  0.0028188 0.0000
 92  -1583.5904683788   0.000197639454 0.00056861  0.00001547  0.0130200 0.0000
 93  -1583.5905662565  -0.000097877698 0.00060903  0.00000822  0.0072722 0.0000
 94  -1583.5906119685  -0.000045711976 0.00069529  0.00000658  0.0055707 0.0000
 95  -1583.5906392164  -0.000027247953 0.00066709  0.00000567  0.0043964 0.0000
 96  -1583.5906571078  -0.000017891404 0.00241753  0.00002122  0.0034515 0.0000
 97  -1583.5906857350  -0.000028627187 0.00357655  0.00002867  0.0006358 0.0000
 98  -1583.5906602122   0.000025522814 0.00011762  0.00000238  0.0044746 0.0000
 99  -1583.5906654187  -0.000005206450 0.00013838  0.00000162  0.0036385 0.0000
               *** Restarting incremental Fock matrix formation ***
                                   *** Resetting DIIS ***
100  -1583.5906656275  -0.000000208835 0.00899326  0.00007730  0.0032685 0.0000
101  -1583.5903324195   0.000333208010 0.00070822  0.00001913  0.0171327 0.0000
102  -1583.5905115376  -0.000179118088 0.00079288  0.00000959  0.0096087 0.0000
103  -1583.5905802739  -0.000068736287 0.00085036  0.00000776  0.0072983 0.0000
104  -1583.5906192364  -0.000038962525 0.00078679  0.00000658  0.0058690 0.0000
105  -1583.5906439006  -0.000024664186 0.00283622  0.00002445  0.0047629 0.0000
106  -1583.5906855229  -0.000041622304 0.00590723  0.00004658  0.0008763 0.0000
107  -1583.5906119024   0.000073620492 0.00030646  0.00000326  0.0060187 0.0000
108  -1583.5906239067  -0.000012004336 0.00030569  0.00000270  0.0052925 0.0000
109  -1583.5906331319  -0.000009225176 0.00025838  0.00000212  0.0047754 0.0000
110  -1583.5906395019  -0.000006369984 0.00011755  0.00000311  0.0044544 0.0000
111  -1583.5906387132   0.000000788666 0.00658118  0.00005639  0.0048715 0.0000
112  -1583.5905800698   0.000058643385 0.00127450  0.00001877  0.0104234 0.0000
113  -1583.5906010423  -0.000020972457 0.00037512  0.00000763  0.0063893 0.0000
114  -1583.5906276448  -0.000026602460 0.00042235  0.00000508  0.0050968 0.0000
115  -1583.5906461047  -0.000018459977 0.00105534  0.00000954  0.0041252 0.0000
116  -1583.5906724639  -0.000026359202 0.00153915  0.00001350  0.0024673 0.0000
117  -1583.5906859599  -0.000013495940 0.00306486  0.00002434  0.0003175 0.0000
118  -1583.5906686283   0.000017331611 0.00011601  0.00000187  0.0036003 0.0000
119  -1583.5906723056  -0.000003677363 0.00012246  0.00000131  0.0029361 0.0000
               *** Restarting incremental Fock matrix formation ***
                                   *** Resetting DIIS ***
120  -1583.5906718044   0.000000501210 0.00735489  0.00006312  0.0026323 0.0000
121  -1583.5904502810   0.000221523381 0.00057607  0.00001556  0.0138990 0.0000
122  -1583.5905670954  -0.000116814329 0.00063722  0.00000783  0.0078050 0.0000
123  -1583.5906128868  -0.000045791429 0.00068621  0.00000631  0.0059343 0.0000
124  -1583.5906389820  -0.000026095210 0.00063520  0.00000533  0.0047788 0.0000

               *****************************************************
               *                      ERROR                        *
               *        SCF NOT CONVERGED AFTER 125 CYCLES         *
               *****************************************************

Setting up the final grid:

General Integration Accuracy     IntAcc      ...  4.670
Radial Grid Type                 RadialGrid  ... Gauss-Chebyshev
Angular Grid (max. acc.)         AngularGrid ... Lebedev-302
Angular grid pruning method      GridPruning ... 3 (G Style)
Weight generation scheme         WeightScheme... Becke
Basis function cutoff            BFCut       ...    1.0000e-11
Integration weight cutoff        WCut        ...    1.0000e-14
Grids for H and He will be reduced by one unit

# of grid points (after initial pruning)     ...  15876 (   0.0 sec)
# of grid points (after weights+screening)   ...  15841 (   0.0 sec)
nearest neighbour list constructed           ...    0.0 sec
Grid point re-assignment to atoms done       ...    0.0 sec
Grid point division into batches done        ...    0.1 sec
Reduced shell lists constructed in    0.1 sec

Total number of grid points                  ...    15841
Total number of batches                      ...      248
Average number of points per batch           ...       63
Average number of grid points per atom       ...     7920
Average number of shells per batch           ...    16.25 (41.67%)
Average number of basis functions per batch  ...    37.58 (27.04%)
Average number of large shells per batch     ...     9.58 (58.97%)
Average number of large basis fcns per batch ...    21.58 (57.43%)
Maximum spatial batch extension              ...  22.45, 25.48, 16.14 au
Average spatial batch extension              ...   0.80,  0.81,  0.59 au

Final grid set up in    0.1 sec
Final integration                            ... done (   0.1 sec)
Change in XC energy                          ...     0.002259634
Integrated number of electrons               ...    36.000021186
Previous integrated no of electrons          ...    36.000511561
  Last Energy change         ...   -2.6095e-05  Tolerance :   1.0000e-08
  Last MAX-Density change    ...    6.3520e-04  Tolerance :   1.0000e-07
             **** DENSITY FILE WAS UPDATED (47_NiO.scfp) ****
             **** ENERGY FILE WAS UPDATED (47_NiO.en.tmp) ****

     --------------------------------------------------------------------
                                      WARNING
     The wavefunction IS NOT YET CONVERGED! It shows however signs of
     convergence. Therefore the wavefunction will be stored and can be
     used as input for another calculation. 
     DO NOT USE THIS WAVEFUNCTION  FOR ANYHTING ELSE. It is NOT RELIABLE
     --------------------------------------------------------------------

Total SCF time: 0 days 0 hours 0 min 21 sec 


-------------------------------------------------------------------------------
                          DFT DISPERSION CORRECTION                            
                                                                               
                              DFTD3 V3.1  Rev 1                                
                          USING Becke-Johnson damping                          
-------------------------------------------------------------------------------
-------------------------   ----------------
Dispersion correction           -0.000886096
-------------------------   ----------------


-------------------------   --------------------
FINAL SINGLE POINT ENERGY     -1583.589265443684   (Wavefunction not fully converged!)
-------------------------   --------------------



           ************************************************************
           *        Program running with 24 parallel MPI-processes    *
           *              working on a common directory               *
           ************************************************************
------------------------------------------------------------------------------
                         ORCA SCF GRADIENT CALCULATION
------------------------------------------------------------------------------

Gradient of the Kohn-Sham DFT energy:
Kohn-Sham wavefunction type      ... UKS
Hartree-Fock exchange scaling    ...    0.000
Number of operators              ...    2
Number of atoms                  ...    2
Basis set dimensions             ...  139
Integral neglect threshold       ... 2.5e-11
Integral primitive cutoff        ... 2.5e-12

Nuclear repulsion gradient       ... done
One Electron Gradient            ... done
Pre-screening matrix             ... done
RI-J gradient                    ... done
Exchange-correlation gradient    ... done
Dispersion correction            ... done

------------------
CARTESIAN GRADIENT
------------------

   1   Ni  :   -0.000000003    0.000000001   -0.082722160
   2   O   :    0.000000000    0.000000001    0.082581530

Difference to translation invariance:
           :   -0.0000000024    0.0000000018   -0.0001406293

Norm of the cartesian gradient     ...    0.1168874024
RMS gradient                       ...    0.0477190822
MAX gradient                       ...    0.0827221596

-------
TIMINGS
-------

Total SCF gradient time            ...        4.312 sec

One electron gradient       ....       0.071 sec  (  1.6%)
Prescreening matrices       ....       3.409 sec  ( 79.1%)
RI-J Coulomb gradient       ....       0.281 sec  (  6.5%)
XC gradient                 ....       0.047 sec  (  1.1%)
------------------------------------------------------------------------------
                         ORCA GEOMETRY RELAXATION STEP
------------------------------------------------------------------------------

Reading the OPT-File                    .... done
Getting information on internals        .... done
Copying old internal coords+grads       .... done
Making the new internal coordinates     .... (new redundants).... done
Validating the new internal coordinates .... (new redundants).... done
Calculating the B-matrix                .... done
Calculating the G,G- and P matrices     .... done
Transforming gradient to internals      .... done
Projecting the internal gradient        .... done
Number of atoms                         ....   2
Number of internal coordinates          ....   1
Current Energy                          .... -1583.589265444 Eh
Current gradient norm                   ....     0.116887402 Eh/bohr
Maximum allowed component of the step   ....  0.300
Current trust radius                    ....  0.300
Updating the Hessian (BFGS)             .... done
Forming the augmented Hessian           .... done
Diagonalizing the augmented Hessian     .... done
Last element of RFO vector              ....  0.760191753
Lowest eigenvalues of augmented Hessian:
 -0.070638497
Length of the computed step             ....  0.854651176
Warning: the length of the step is outside the trust region - taking restricted step instead
The input lambda is                     ....    -0.070638
   iter:   1  x=   -0.113035  g=   15.105814 f(x)=     0.640429
   iter:   2  x=   -0.164856  g=    5.075888 f(x)=     0.263039
   iter:   3  x=   -0.214473  g=    1.963095 f(x)=     0.097403
   iter:   4  x=   -0.243062  g=    0.981654 f(x)=     0.028065
   iter:   5  x=   -0.249217  g=    0.700872 f(x)=     0.004314
   iter:   6  x=   -0.249436  g=    0.654907 f(x)=     0.000144
   iter:   7  x=   -0.249436  g=    0.653345 f(x)=     0.000000
   iter:   8  x=   -0.249436  g=    0.653343 f(x)=     0.000000
   iter:   9  x=   -0.249436  g=    0.653343 f(x)=     0.000000
The output lambda is                    ....    -0.249436 (9 iterations)
The final length of the internal step   ....  0.300000000
Converting the step to cartesian space:
 Initial RMS(Int)=    0.3000000000
Transforming coordinates:
 Iter   0:  RMS(Cart)=    0.0866025404 RMS(Int)=    0.3000000000
 Iter   1:  RMS(Cart)=    0.0000000000 RMS(Int)=    0.0000000000
done
Storing new coordinates                 .... done

                                .--------------------.
          ----------------------|Geometry convergence|-------------------------
          Item                value                   Tolerance       Converged
          ---------------------------------------------------------------------
          Energy change      -0.0119452383            0.0000050000      NO
          RMS gradient        0.0826518450            0.0001000000      NO
          MAX gradient        0.0826518450            0.0003000000      NO
          RMS step            0.3000000000            0.0020000000      NO
          MAX step            0.3000000000            0.0040000000      NO
          ........................................................
          Max(Bonds)      0.1588      Max(Angles)    0.00
          Max(Dihed)        0.00      Max(Improp)    0.00
          ---------------------------------------------------------------------

The optimization has not yet converged - more geometry cycles are needed


    ---------------------------------------------------------------------------
                         Redundant Internal Coordinates
                            (Angstroem and degrees)

        Definition                    Value    dE/dq     Step     New-Value
    ----------------------------------------------------------------------------
     1. B(O   1,Ni  0)                1.9257  0.082652 -0.1588    1.7669   
    ----------------------------------------------------------------------------

         *************************************************************
         *                GEOMETRY OPTIMIZATION CYCLE   3            *
         *************************************************************
---------------------------------
CARTESIAN COORDINATES (ANGSTROEM)
---------------------------------
  Ni     0.000000    0.000000    0.116548
  O      0.000000    0.000000    1.883452

----------------------------
CARTESIAN COORDINATES (A.U.)
----------------------------
  NO LB      ZA    FRAG     MASS         X           Y           Z
   0 Ni   28.0000    0    58.700    0.000000    0.000000    0.220244
   1 O     8.0000    0    15.999    0.000000    0.000000    3.559208

--------------------------------
INTERNAL COORDINATES (ANGSTROEM)
--------------------------------
 Ni     0   0   0     0.000000000000     0.00000000     0.00000000
 O      1   0   0     1.766903415399     0.00000000     0.00000000

---------------------------
INTERNAL COORDINATES (A.U.)
---------------------------
 Ni     0   0   0     0.000000000000     0.00000000     0.00000000
 O      1   0   0     3.338963560194     0.00000000     0.00000000



           ************************************************************
           *        Program running with 24 parallel MPI-processes    *
           *              working on a common directory               *
           ************************************************************
 One Electron integrals                  ... done
 Pre-screening matrix                    ... done


           ************************************************************
           *        Program running with 24 parallel MPI-processes    *
           *              working on a common directory               *
           ************************************************************

Diagonalization of the overlap matrix:
Smallest eigenvalue                        ... 2.790e-04
Time for diagonalization                   ...    0.005 sec
Threshold for overlap eigenvalues          ... 1.000e-08
Number of eigenvalues below threshold      ... 0
Time for construction of square roots      ...    0.002 sec
Total time needed                          ...    0.007 sec

-------------------
DFT GRID GENERATION
-------------------

General Integration Accuracy     IntAcc      ...  4.340
Radial Grid Type                 RadialGrid  ... Gauss-Chebyshev
Angular Grid (max. acc.)         AngularGrid ... Lebedev-110
Angular grid pruning method      GridPruning ... 3 (G Style)
Weight generation scheme         WeightScheme... Becke
Basis function cutoff            BFCut       ...    1.0000e-11
Integration weight cutoff        WCut        ...    1.0000e-14
Grids for H and He will be reduced by one unit

# of grid points (after initial pruning)     ...   4628 (   0.0 sec)
# of grid points (after weights+screening)   ...   4603 (   0.0 sec)
nearest neighbour list constructed           ...    0.0 sec
Grid point re-assignment to atoms done       ...    0.0 sec
Grid point division into batches done        ...    0.0 sec
Reduced shell lists constructed in    0.0 sec

Total number of grid points                  ...     4603
Total number of batches                      ...       73
Average number of points per batch           ...       63
Average number of grid points per atom       ...     2302
Average number of shells per batch           ...    21.60 (55.38%)
Average number of basis functions per batch  ...    64.80 (46.62%)
Average number of large shells per batch     ...    16.80 (77.78%)
Average number of large basis fcns per batch ...    46.40 (71.60%)
Maximum spatial batch extension              ...  17.39, 26.34, 14.81 au
Average spatial batch extension              ...   0.92,  1.21,  0.81 au

Time for grid setup =    0.019 sec

--------------
SCF ITERATIONS
--------------
ITER       Energy         Delta-E        Max-DP      RMS-DP      [F,P]     Damp
               ***  Starting incremental Fock matrix formation  ***
  0  -1583.6104474178   0.000000000000 0.01287978  0.00015387  0.0262740 0.7000
  1  -1583.6112623730  -0.000814955128 0.00375508  0.00010260  0.0181954 0.7000
                               ***Turning on DIIS***
  2  -1583.6118034163  -0.000541043380 0.01046385  0.00025935  0.0112276 0.0000
  3  -1583.6125234814  -0.000720065037 0.01138729  0.00013302  0.0225060 0.0000
  4  -1583.6129242055  -0.000400724077 0.00213235  0.00005162  0.0205703 0.0000
  5  -1583.6130502042  -0.000125998707 0.00265951  0.00003666  0.0098340 0.0000
  6  -1583.6132053130  -0.000155108857 0.00199120  0.00002077  0.0046042 0.0000
  7  -1583.6132356920  -0.000030378971 0.00302508  0.00003634  0.0003912 0.0000
  8  -1583.6132367426  -0.000001050650 0.00016004  0.00000237  0.0018280 0.0000
  9  -1583.6132393327  -0.000002590035 0.00018681  0.00000228  0.0013964 0.0000
 10  -1583.6132413140  -0.000001981364 0.00017714  0.00000220  0.0010298 0.0000
 11  -1583.6132426415  -0.000001327465 0.00080641  0.00001062  0.0007518 0.0000
 12  -1583.6132439269  -0.000001285396 0.00063950  0.00000756  0.0005382 0.0000
 13  -1583.6132441769  -0.000000250003 0.00039201  0.00000505  0.0009289 0.0000
 14  -1583.6132446023  -0.000000425419 0.00024990  0.00000354  0.0001152 0.0000
 15  -1583.6132448246  -0.000000222320 0.00016547  0.00000236  0.0000447 0.0000
 16  -1583.6132449286  -0.000000103970 0.00012520  0.00000182  0.0000169 0.0000
 17  -1583.6132450403  -0.000000111701 0.00007372  0.00000104  0.0000140 0.0000
 18  -1583.6132451233  -0.000000083011 0.00001701  0.00000025  0.0000015 0.0000
                            ***DIIS convergence achieved***

               *****************************************************
               *                     SUCCESS                       *
               *           SCF CONVERGED AFTER  19 CYCLES          *
               *****************************************************

Setting up the final grid:

General Integration Accuracy     IntAcc      ...  4.670
Radial Grid Type                 RadialGrid  ... Gauss-Chebyshev
Angular Grid (max. acc.)         AngularGrid ... Lebedev-302
Angular grid pruning method      GridPruning ... 3 (G Style)
Weight generation scheme         WeightScheme... Becke
Basis function cutoff            BFCut       ...    1.0000e-11
Integration weight cutoff        WCut        ...    1.0000e-14
Grids for H and He will be reduced by one unit

# of grid points (after initial pruning)     ...  15876 (   0.0 sec)
# of grid points (after weights+screening)   ...  15840 (   0.0 sec)
nearest neighbour list constructed           ...    0.0 sec
Grid point re-assignment to atoms done       ...    0.0 sec
Grid point division into batches done        ...    0.1 sec
Reduced shell lists constructed in    0.1 sec

Total number of grid points                  ...    15840
Total number of batches                      ...      248
Average number of points per batch           ...       63
Average number of grid points per atom       ...     7920
Average number of shells per batch           ...    16.25 (41.67%)
Average number of basis functions per batch  ...    37.58 (27.04%)
Average number of large shells per batch     ...     9.92 (61.03%)
Average number of large basis fcns per batch ...    23.25 (61.86%)
Maximum spatial batch extension              ...  22.45, 22.17, 15.84 au
Average spatial batch extension              ...   0.80,  0.79,  0.61 au

Final grid set up in    0.1 sec
Final integration                            ... done (   0.1 sec)
Change in XC energy                          ...     0.002311948
Integrated number of electrons               ...    36.000013402
Previous integrated no of electrons          ...    36.000529846
Total Energy       :        -1583.61093320 Eh          -43092.24426 eV
  Last Energy change         ...   -2.1678e-08  Tolerance :   1.0000e-08
  Last MAX-Density change    ...    4.4059e-06  Tolerance :   1.0000e-07
             **** THE GBW FILE WAS UPDATED (47_NiO.gbw) ****
             **** DENSITY FILE WAS UPDATED (47_NiO.scfp) ****
             **** ENERGY FILE WAS UPDATED (47_NiO.en.tmp) ****
----------------------
UHF SPIN CONTAMINATION
----------------------

Warning: in a DFT calculation there is little theoretical justification to 
         calculate <S**2> as in Hartree-Fock theory. We will do it anyways
         but you should keep in mind that the values have only limited relevance

Expectation value of <S**2>     :     2.011394
Ideal value S*(S+1) for S=1.0   :     2.000000
Deviation                       :     0.011394

             **** THE GBW FILE WAS UPDATED (47_NiO.gbw) ****
             **** DENSITY FILE WAS UPDATED (47_NiO.scfp) ****
Total SCF time: 0 days 0 hours 0 min 3 sec 


-------------------------------------------------------------------------------
                          DFT DISPERSION CORRECTION                            
                                                                               
                              DFTD3 V3.1  Rev 1                                
                          USING Becke-Johnson damping                          
-------------------------------------------------------------------------------
-------------------------   ----------------
Dispersion correction           -0.000763024
-------------------------   ----------------


-------------------------   --------------------
FINAL SINGLE POINT ENERGY     -1583.611696221234
-------------------------   --------------------



           ************************************************************
           *        Program running with 24 parallel MPI-processes    *
           *              working on a common directory               *
           ************************************************************
------------------------------------------------------------------------------
                         ORCA SCF GRADIENT CALCULATION
------------------------------------------------------------------------------

Gradient of the Kohn-Sham DFT energy:
Kohn-Sham wavefunction type      ... UKS
Hartree-Fock exchange scaling    ...    0.000
Number of operators              ...    2
Number of atoms                  ...    2
Basis set dimensions             ...  139
Integral neglect threshold       ... 2.5e-11
Integral primitive cutoff        ... 2.5e-12

Nuclear repulsion gradient       ... done
One Electron Gradient            ... done
Pre-screening matrix             ... done
RI-J gradient                    ... done
Exchange-correlation gradient    ... done
Dispersion correction            ... done

------------------
CARTESIAN GRADIENT
------------------

   1   Ni  :    0.000000002    0.000000002   -0.060182271
   2   O   :   -0.000000001    0.000000002    0.060129779

Difference to translation invariance:
           :    0.0000000011    0.0000000039   -0.0000524919

Norm of the cartesian gradient     ...    0.0850734739
RMS gradient                       ...    0.0347311003
MAX gradient                       ...    0.0601822705

-------
TIMINGS
-------

Total SCF gradient time            ...        4.256 sec

One electron gradient       ....       0.059 sec  (  1.4%)
Prescreening matrices       ....       3.400 sec  ( 79.9%)
RI-J Coulomb gradient       ....       0.236 sec  (  5.6%)
XC gradient                 ....       0.048 sec  (  1.1%)
------------------------------------------------------------------------------
                         ORCA GEOMETRY RELAXATION STEP
------------------------------------------------------------------------------

Reading the OPT-File                    .... done
Getting information on internals        .... done
Copying old internal coords+grads       .... done
Making the new internal coordinates     .... (new redundants).... done
Validating the new internal coordinates .... (new redundants).... done
Calculating the B-matrix                .... done
Calculating the G,G- and P matrices     .... done
Transforming gradient to internals      .... done
Projecting the internal gradient        .... done
Number of atoms                         ....   2
Number of internal coordinates          ....   1
Current Energy                          .... -1583.611696221 Eh
Current gradient norm                   ....     0.085073474 Eh/bohr
Maximum allowed component of the step   ....  0.300
Current trust radius                    ....  0.300
Updating the Hessian (BFGS)             .... done
Forming the augmented Hessian           .... done
Diagonalizing the augmented Hessian     .... done
Last element of RFO vector              ....  0.874339345
Lowest eigenvalues of augmented Hessian:
 -0.033390496
Length of the computed step             ....  0.555064879
Warning: the length of the step is outside the trust region - taking restricted step instead
[...]
 105   0.0000       5.544056       150.8614 
 106   0.0000       5.544106       150.8628 
 107   0.0000       5.915871       160.9790 
 108   0.0000       5.915871       160.9790 
 109   0.0000       6.057169       164.8239 
 110   0.0000       6.057169       164.8239 
 111   0.0000       6.149314       167.3313 
 112   0.0000       6.159835       167.6176 
 113   0.0000       6.406033       174.3170 
 114   0.0000       6.406033       174.3170 
 115   0.0000       6.416810       174.6103 
 116   0.0000       6.460094       175.7881 
 117   0.0000       6.472275       176.1196 
 118   0.0000       6.924053       188.4131 
 119   0.0000       6.924053       188.4131 
 120   0.0000       6.988314       190.1617 
 121   0.0000       7.617951       207.2950 
 122   0.0000      10.766334       292.9669 
 123   0.0000      12.254620       333.4652 
 124   0.0000      12.254693       333.4671 
 125   0.0000      12.270473       333.8966 
 126   0.0000      12.270473       333.8966 
 127   0.0000      12.326780       335.4287 
 128   0.0000      12.326780       335.4287 
 129   0.0000      12.503671       340.2422 
 130   0.0000      13.897837       378.1794 
 131   0.0000      13.897837       378.1794 
 132   0.0000      13.932916       379.1339 
 133   0.0000      13.933567       379.1516 
 134   0.0000      13.957546       379.8041 
 135   0.0000      13.958989       379.8434 
 136   0.0000      14.198971       386.3736 
 137   0.0000      14.198971       386.3736 
 138   0.0000      14.458921       393.4473 

                 SPIN DOWN ORBITALS
  NO   OCC          E(Eh)            E(eV) 
   0   1.0000    -298.978290     -8135.6129 
   1   1.0000     -35.372326      -962.5299 
   2   1.0000     -30.817358      -838.5829 
   3   1.0000     -30.807724      -838.3208 
   4   1.0000     -30.807724      -838.3208 
   5   1.0000     -18.886814      -513.9363 
   6   1.0000      -3.878233      -105.5321 
   7   1.0000      -2.505199       -68.1699 
   8   1.0000      -2.476093       -67.3779 
   9   1.0000      -2.476093       -67.3779 
  10   1.0000      -0.808691       -22.0056 
  11   1.0000      -0.329523        -8.9668 
  12   1.0000      -0.270401        -7.3580 
  13   1.0000      -0.270401        -7.3580 
  14   1.0000      -0.211714        -5.7610 
  15   1.0000      -0.211670        -5.7598 
  16   1.0000      -0.203106        -5.5268 
  17   0.0000      -0.156757        -4.2656 
  18   0.0000      -0.156757        -4.2656 
  19   0.0000      -0.115453        -3.1416 
  20   0.0000      -0.009680        -0.2634 
  21   0.0000      -0.009680        -0.2634 
  22   0.0000       0.009535         0.2595 
  23   0.0000       0.014468         0.3937 
  24   0.0000       0.044320         1.2060 
  25   0.0000       0.044320         1.2060 
  26   0.0000       0.070805         1.9267 
  27   0.0000       0.079490         2.1630 
  28   0.0000       0.079505         2.1634 
  29   0.0000       0.085994         2.3400 
  30   0.0000       0.085994         2.3400 
  31   0.0000       0.094404         2.5689 
  32   0.0000       0.124675         3.3926 
  33   0.0000       0.192468         5.2373 
  34   0.0000       0.200572         5.4578 
  35   0.0000       0.200572         5.4578 
  36   0.0000       0.210750         5.7348 
  37   0.0000       0.210750         5.7348 
  38   0.0000       0.271575         7.3899 
  39   0.0000       0.347180         9.4473 
  40   0.0000       0.347323         9.4511 
  41   0.0000       0.355828         9.6826 
  42   0.0000       0.367162         9.9910 
  43   0.0000       0.367162         9.9910 
  44   0.0000       0.527789        14.3619 
  45   0.0000       0.581372        15.8199 
  46   0.0000       0.581395        15.8206 
  47   0.0000       0.642772        17.4907 
  48   0.0000       0.702858        19.1257 
  49   0.0000       0.702858        19.1257 
  50   0.0000       0.721456        19.6318 
  51   0.0000       0.881444        23.9853 
  52   0.0000       0.881444        23.9853 
  53   0.0000       0.945216        25.7206 
  54   0.0000       0.945216        25.7206 
  55   0.0000       1.034549        28.1515 
  56   0.0000       1.100146        29.9365 
  57   0.0000       1.223418        33.2909 
  58   0.0000       1.223418        33.2909 
  59   0.0000       1.307562        35.5806 
  60   0.0000       1.307899        35.5897 
  61   0.0000       1.346492        36.6399 
  62   0.0000       1.346492        36.6399 
  63   0.0000       1.365700        37.1626 
  64   0.0000       1.366052        37.1722 
  65   0.0000       1.397084        38.0166 
  66   0.0000       1.566916        42.6379 
  67   0.0000       1.566916        42.6379 
  68   0.0000       1.780016        48.4367 
  69   0.0000       1.842805        50.1453 
  70   0.0000       1.869712        50.8774 
  71   0.0000       1.869712        50.8774 
  72   0.0000       1.929786        52.5122 
  73   0.0000       1.932995        52.5995 
  74   0.0000       2.118259        57.6408 
  75   0.0000       2.118259        57.6408 
  76   0.0000       2.144673        58.3595 
  77   0.0000       2.145568        58.3839 
  78   0.0000       2.304790        62.7165 
  79   0.0000       2.736420        74.4618 
  80   0.0000       2.736420        74.4618 
  81   0.0000       3.106328        84.5275 
  82   0.0000       3.537137        96.2504 
  83   0.0000       3.796541       103.3091 
  84   0.0000       3.796541       103.3091 
  85   0.0000       3.803457       103.4973 
  86   0.0000       3.803457       103.4973 
  87   0.0000       3.864937       105.1703 
  88   0.0000       3.865030       105.1728 
  89   0.0000       3.875391       105.4548 
  90   0.0000       3.875391       105.4548 
  91   0.0000       3.878010       105.5260 
  92   0.0000       3.976557       108.2076 
  93   0.0000       3.976557       108.2076 
  94   0.0000       4.240884       115.4003 
  95   0.0000       4.582383       124.6930 
  96   0.0000       4.993688       135.8852 
  97   0.0000       4.995183       135.9258 
  98   0.0000       5.002956       136.1374 
  99   0.0000       5.002956       136.1374 
 100   0.0000       5.126936       139.5110 
 101   0.0000       5.127220       139.5188 
 102   0.0000       5.165587       140.5628 
 103   0.0000       5.165587       140.5628 
 104   0.0000       5.395265       146.8126 
 105   0.0000       5.568134       151.5166 
 106   0.0000       5.568487       151.5262 
 107   0.0000       5.968034       162.3985 
 108   0.0000       5.968034       162.3985 
 109   0.0000       6.114543       166.3852 
 110   0.0000       6.114543       166.3852 
 111   0.0000       6.197813       168.6511 
 112   0.0000       6.207816       168.9233 
 113   0.0000       6.448467       175.4717 
 114   0.0000       6.448467       175.4717 
 115   0.0000       6.454831       175.6449 
 116   0.0000       6.551931       178.2871 
 117   0.0000       6.563224       178.5944 
 118   0.0000       6.980939       189.9610 
 119   0.0000       6.980939       189.9610 
 120   0.0000       7.030149       191.3001 
 121   0.0000       7.652099       208.2242 
 122   0.0000      10.812409       294.2206 
 123   0.0000      12.304380       334.8192 
 124   0.0000      12.304380       334.8192 
 125   0.0000      12.344725       335.9170 
 126   0.0000      12.344767       335.9182 
 127   0.0000      12.393130       337.2342 
 128   0.0000      12.393130       337.2342 
 129   0.0000      12.549243       341.4823 
 130   0.0000      13.958764       379.8373 
 131   0.0000      13.958764       379.8373 
 132   0.0000      13.963619       379.9694 
 133   0.0000      13.964432       379.9915 
 134   0.0000      14.018343       381.4585 
 135   0.0000      14.020419       381.5150 
 136   0.0000      14.250827       387.7847 
 137   0.0000      14.250827       387.7847 
 138   0.0000      14.506298       394.7364 

                    ********************************
                    * MULLIKEN POPULATION ANALYSIS *
                    ********************************

--------------------------------------------
MULLIKEN ATOMIC CHARGES AND SPIN POPULATIONS
--------------------------------------------
   0 Ni:    0.512977    1.087042
   1 O :   -0.512977    0.912958
Sum of atomic charges         :   -0.0000000
Sum of atomic spin populations:    2.0000000

-----------------------------------------------------
MULLIKEN REDUCED ORBITAL CHARGES AND SPIN POPULATIONS
-----------------------------------------------------
CHARGE
  0 Nis       :     6.691836  s :     6.691836
      pz      :     4.036377  p :    12.134154
      px      :     4.048889
      py      :     4.048889
      dz2     :     1.728354  d :     8.644689
      dxz     :     1.459477
      dyz     :     1.459477
      dx2y2   :     1.998695
      dxy     :     1.998686
      f0      :     0.005705  f :     0.015607
      f+1     :     0.004836
      f-1     :     0.004836
      f+2     :     0.000115
      f-2     :     0.000114
      f+3     :     0.000000
      f-3     :     0.000000
      g0      :     0.000249  g :     0.000737
      g+1     :     0.000228
      g-1     :     0.000228
      g+2     :     0.000015
      g-2     :     0.000016
      g+3     :     0.000000
      g-3     :     0.000000
      g+4     :     0.000000
      g-4     :     0.000000
  1 O s       :     3.986926  s :     3.986926
      pz      :     1.545621  p :     4.500930
      px      :     1.477654
      py      :     1.477654
      dz2     :     0.003489  d :     0.020335
      dxz     :     0.007773
      dyz     :     0.007773
      dx2y2   :     0.000649
      dxy     :     0.000652
      f0      :     0.001443  f :     0.004786
      f+1     :     0.001142
      f-1     :     0.001142
      f+2     :     0.000526
      f-2     :     0.000533
      f+3     :     0.000000
      f-3     :     0.000000

SPIN
  0 Nis       :    -0.014341  s :    -0.014341
      pz      :    -0.000185  p :     0.043623
      px      :     0.021904
      py      :     0.021904
      dz2     :     0.010156  d :     1.053255
      dxz     :     0.521778
      dyz     :     0.521778
      dx2y2   :    -0.000226
      dxy     :    -0.000231
      f0      :     0.000377  f :     0.004548
      f+1     :     0.002024
      f-1     :     0.002024
      f+2     :     0.000062
      f-2     :     0.000061
      f+3     :     0.000000
      f-3     :     0.000000
      g0      :    -0.000060  g :    -0.000043
      g+1     :    -0.000007
      g-1     :    -0.000007
      g+2     :     0.000015
      g-2     :     0.000016
      g+3     :     0.000000
      g-3     :     0.000000
      g+4     :     0.000000
      g-4     :    -0.000000
  1 O s       :    -0.000176  s :    -0.000176
      pz      :     0.004010  p :     0.917660
      px      :     0.456825
      py      :     0.456825
      dz2     :     0.000106  d :    -0.003637
      dxz     :    -0.001950
      dyz     :    -0.001950
      dx2y2   :     0.000077
      dxy     :     0.000080
      f0      :     0.000113  f :    -0.000889
      f+1     :    -0.000574
      f-1     :    -0.000574
      f+2     :     0.000072
      f-2     :     0.000074
      f+3     :     0.000000
      f-3     :     0.000000


                     *******************************
                     * LOEWDIN POPULATION ANALYSIS *
                     *******************************

-------------------------------------------
LOEWDIN ATOMIC CHARGES AND SPIN POPULATIONS
-------------------------------------------
   0 Ni:    0.491334    1.167498
   1 O :   -0.491334    0.832502

----------------------------------------------------
LOEWDIN REDUCED ORBITAL CHARGES AND SPIN POPULATIONS
----------------------------------------------------
CHARGE
  0 Nis       :     6.482474  s :     6.482474
      pz      :     4.138481  p :    12.223368
      px      :     4.042444
      py      :     4.042444
      dz2     :     1.823903  d :     8.686047
      dxz     :     1.447557
      dyz     :     1.447557
      dx2y2   :     1.983520
      dxy     :     1.983509
      f0      :     0.053053  f :     0.112784
      f+1     :     0.029257
      f-1     :     0.029257
      f+2     :     0.000610
      f-2     :     0.000607
      f+3     :     0.000000
      f-3     :     0.000000
      g0      :     0.002272  g :     0.003993
      g+1     :     0.000841
      g-1     :     0.000841
      g+2     :     0.000019
      g-2     :     0.000019
      g+3     :     0.000000
      g-3     :     0.000000
      g+4     :     0.000000
      g-4     :     0.000000
  1 O s       :     3.607957  s :     3.607957
      pz      :     1.686775  p :     4.472994
      px      :     1.393109
      py      :     1.393109
      dz2     :     0.134968  d :     0.253333
      dxz     :     0.051445
      dyz     :     0.051445
      dx2y2   :     0.007734
      dxy     :     0.007740
      f0      :     0.070116  f :     0.157050
      f+1     :     0.035346
      f-1     :     0.035346
      f+2     :     0.008117
      f-2     :     0.008124
      f+3     :     0.000000
      f-3     :     0.000000

SPIN
  0 Nis       :    -0.011383  s :    -0.011383
      pz      :    -0.004856  p :     0.102544
      px      :     0.053700
      py      :     0.053700
      dz2     :     0.008014  d :     1.040798
      dxz     :     0.515969
      dyz     :     0.515969
      dx2y2   :     0.000423
      dxy     :     0.000423
      f0      :     0.001249  f :     0.034592
      f+1     :     0.016523
      f-1     :     0.016523
      f+2     :     0.000149
      f-2     :     0.000148
      f+3     :     0.000000
      f-3     :     0.000000
      g0      :    -0.000033  g :     0.000948
      g+1     :     0.000491
      g-1     :     0.000491
      g+2     :    -0.000001
      g-2     :    -0.000000
      g+3     :     0.000000
      g-3     :     0.000000
      g+4     :     0.000000
      g-4     :    -0.000000
  1 O s       :     0.006424  s :     0.006424
      pz      :     0.001040  p :     0.792269
      px      :     0.395614
      py      :     0.395614
      dz2     :    -0.000190  d :     0.016364
      dxz     :     0.008645
      dyz     :     0.008645
      dx2y2   :    -0.000368
      dxy     :    -0.000368
      f0      :    -0.000265  f :     0.017445
      f+1     :     0.009058
      f-1     :     0.009058
      f+2     :    -0.000203
      f-2     :    -0.000202
      f+3     :     0.000000
      f-3     :     0.000000


                      *****************************
                      * MAYER POPULATION ANALYSIS *
                      *****************************

  NA   - Mulliken gross atomic population
  ZA   - Total nuclear charge
  QA   - Mulliken gross atomic charge
  VA   - Mayer's total valence
  BVA  - Mayer's bonded valence
  FA   - Mayer's free valence

  ATOM       NA         ZA         QA         VA         BVA        FA
  0 Ni    27.4870    28.0000     0.5130     2.6167     1.9416     0.6752
  1 O      8.5130     8.0000    -0.5130     2.3620     1.9416     0.4204

  Mayer bond orders larger than 0.100000
B(  0-Ni,  1-O ) :   1.9416 

-------
TIMINGS
-------

Total SCF time: 0 days 0 hours 0 min 1 sec 

Total time                  ....       1.586 sec
Sum of individual times     ....       1.418 sec  ( 89.4%)

Fock matrix formation       ....       1.220 sec  ( 77.0%)
  Split-RI-J                ....       0.881 sec  ( 72.2% of F)
  XC integration            ....       0.154 sec  ( 12.7% of F)
    Basis function eval.    ....       0.018 sec  ( 11.5% of XC)
    Density eval.           ....       0.022 sec  ( 14.3% of XC)
    XC-Functional eval.     ....       0.005 sec  (  3.2% of XC)
    XC-Potential eval.      ....       0.057 sec  ( 37.1% of XC)
Diagonalization             ....       0.035 sec  (  2.2%)
Density matrix formation    ....       0.005 sec  (  0.3%)
Population analysis         ....       0.008 sec  (  0.5%)
Initial guess               ....       0.014 sec  (  0.9%)
Orbital Transformation      ....       0.000 sec  (  0.0%)
Orbital Orthonormalization  ....       0.009 sec  (  0.5%)
DIIS solution               ....       0.009 sec  (  0.6%)
Grid generation             ....       0.126 sec  (  8.0%)


-------------------------------------------------------------------------------
                          DFT DISPERSION CORRECTION                            
                                                                               
                              DFTD3 V3.1  Rev 1                                
                          USING Becke-Johnson damping                          
-------------------------------------------------------------------------------
The TPSS functional is recognized
Active option DFTDOPT                   ...         4   

molecular C6(AA) [au] = 345.977259 


            DFT-D V3
 parameters
 s6 scaling factor         :     1.0000 
 a1 scaling factor         :     0.4535 
 s8 scaling factor         :     1.9435 
 a2 scaling factor         :     4.4752 
 ad hoc parameters k1-k3   :    16.0000     1.3333    -4.0000 

 Edisp/kcal,au: -0.466169071987  -0.000742887624 
 E6   /kcal   :  -0.188546886 
 E8   /kcal   :  -0.277622186 
 % E8         :  59.553969288 

-------------------------   ----------------
Dispersion correction           -0.000742888
-------------------------   ----------------


-------------------------   --------------------
FINAL SINGLE POINT ENERGY     -1583.620655119809
-------------------------   --------------------

                                *** OPTIMIZATION RUN DONE ***

                            ***************************************
                            *     ORCA property calculations      *
                            ***************************************

                                    ---------------------
                                    Active property flags
                                    ---------------------
   (+) Dipole Moment


------------------------------------------------------------------------------
                       ORCA ELECTRIC PROPERTIES CALCULATION
------------------------------------------------------------------------------

Dipole Moment Calculation                       ... on
Quadrupole Moment Calculation                   ... off
Polarizability Calculation                      ... off
GBWName                                         ... 47_NiO.gbw
Electron density file                           ... 47_NiO.scfp
The origin for moment calculation is the CENTER OF MASS  = ( 0.000000,  0.000000  1.009467)

-------------
DIPOLE MOMENT
-------------
                                X             Y             Z
Electronic contribution:      0.00000      -0.00000      -2.53677
Nuclear contribution   :      0.00000       0.00000       0.89170
                        -----------------------------------------
Total Dipole Moment    :      0.00000      -0.00000      -1.64507
                        -----------------------------------------
Magnitude (a.u.)       :      1.64507
Magnitude (Debye)      :      4.18142



--------------------
Rotational spectrum 
--------------------
 
Rotational constants in cm-1:     0.000000     0.504828     0.504828 
Rotational constants in MHz :     0.000000 15134.363944 15134.363944 

 Dipole components along the rotational axes: 
x,y,z [a.u.] :    -1.645066    -0.000000     0.000000 
x,y,z [Debye]:    -4.181424    -0.000000     0.000000 

 

Timings for individual modules:

Sum of individual times         ...      119.298 sec (=   1.988 min)
GTO integral calculation        ...       20.811 sec (=   0.347 min)  17.4 %
SCF iterations                  ...       65.763 sec (=   1.096 min)  55.1 %
SCF Gradient evaluation         ...       32.490 sec (=   0.542 min)  27.2 %
Geometry relaxation             ...        0.234 sec (=   0.004 min)   0.2 %
                             ****ORCA TERMINATED NORMALLY****
TOTAL RUN TIME: 0 days 0 hours 2 minutes 0 seconds 341 msec
