
                                 *****************
                                 * O   R   C   A *
                                 *****************

           --- An Ab Initio, DFT and Semiempirical electronic structure package ---

                  #######################################################
                  #                        -***-                        #
                  #          Department of theory and spectroscopy      #
                  #               Directorship: Frank Neese             #
                  #        Max Planck Institute fuer Kohlenforschung    #
                  #                Kaiser Wilhelm Platz 1               #
                  #                 D-45470 Muelheim/Ruhr               #
                  #                      Germany                        #
                  #                                                     #
                  #                  All rights reserved                #
                  #                        -***-                        #
                  #######################################################


                         Program Version 4.2.0 -  RELEASE  -


 With contributions from (in alphabetic order):
   Daniel Aravena         : Magnetic Suceptibility
   Michael Atanasov       : Ab Initio Ligand Field Theory (pilot matlab implementation)
   Alexander A. Auer      : GIAO ZORA, VPT2
   Ute Becker             : Parallelization
   Giovanni Bistoni       : ED, misc. LED, open-shell LED, HFLED
   Martin Brehm           : Molecular dynamics
   Dmytro Bykov           : SCF Hessian
   Vijay G. Chilkuri      : MRCI spin determinant printing, contributions to CSF-ICE
   Dipayan Datta          : RHF DLPNO-CCSD density
   Achintya Kumar Dutta   : EOM-CC, STEOM-CC
   Dmitry Ganyushin       : Spin-Orbit,Spin-Spin,Magnetic field MRCI
   Miquel Garcia          : C-PCM Hessian, Gaussian charge scheme
   Yang Guo               : DLPNO-NEVPT2, CIM, IAO-localization
   Andreas Hansen         : Spin unrestricted coupled pair/coupled cluster methods
   Benjamin Helmich-Paris : CASSCF linear response (MC-RPA)
   Lee Huntington         : MR-EOM, pCC
   Robert Izsak           : Overlap fitted RIJCOSX, COSX-SCS-MP3, EOM
   Christian Kollmar      : KDIIS, OOCD, Brueckner-CCSD(T), CCSD density
   Simone Kossmann        : Meta GGA functionals, TD-DFT gradient, OOMP2, MP2 Hessian
   Martin Krupicka        : AUTO-CI
   Lucas Lang             : DCDCAS
   Dagmar Lenk            : GEPOL surface, SMD
   Dimitrios Liakos       : Extrapolation schemes; Compound Job, initial MDCI parallelization
   Dimitrios Manganas     : Further ROCIS development; embedding schemes
   Dimitrios Pantazis     : SARC Basis sets
   Taras Petrenko         : DFT Hessian,TD-DFT gradient, ASA, ECA, R-Raman, ABS, FL, XAS/XES, NRVS
   Peter Pinski           : DLPNO-MP2, DLPNO-MP2 Gradient
   Christoph Reimann      : Effective Core Potentials
   Marius Retegan         : Local ZFS, SOC
   Christoph Riplinger    : Optimizer, TS searches, QM/MM, DLPNO-CCSD(T), (RO)-DLPNO pert. Triples
   Tobias Risthaus        : Range-separated hybrids, TD-DFT gradient, RPA, STAB
   Michael Roemelt        : Original ROCIS implementation
   Masaaki Saitow         : Open-shell DLPNO-CCSD energy and density
   Barbara Sandhoefer     : DKH picture change effects
   Avijit Sen             : IP-ROCIS
   Kantharuban Sivalingam : CASSCF convergence, NEVPT2, FIC-MRCI
   Bernardo de Souza      : ESD, SOC TD-DFT
   Georgi Stoychev        : AutoAux, RI-MP2 NMR
   Willem Van den Heuvel  : Paramagnetic NMR
   Boris Wezisla          : Elementary symmetry handling
   Frank Wennmohs         : Technical directorship


 We gratefully acknowledge several colleagues who have allowed us to
 interface, adapt or use parts of their codes:
   Stefan Grimme, W. Hujo, H. Kruse,             : VdW corrections, initial TS optimization,
                  C. Bannwarth                     DFT functionals, gCP, sTDA/sTD-DF
   Ed Valeev, F. Pavosevic, A. Kumar             : LibInt (2-el integral package), F12 methods
   Garnet Chan, S. Sharma, J. Yang, R. Olivares  : DMRG
   Ulf Ekstrom                                   : XCFun DFT Library
   Mihaly Kallay                                 : mrcc  (arbitrary order and MRCC methods)
   Andreas Klamt, Michael Diedenhofen            : otool_cosmo (COSMO solvation model)
   Jiri Pittner, Ondrej Demel                    : Mk-CCSD
   Frank Weinhold                                : gennbo (NPA and NBO analysis)
   Christopher J. Cramer and Donald G. Truhlar   : smd solvation model
   Lars Goerigk                                  : TD-DFT with DH, B97 family of functionals
   V. Asgeirsson, H. Jonsson                     : NEB implementation
   FAccTs GmbH                                   : IRC, NEB, NEB-TS, Multilevel, MM, QM/MM, CI optimization
   S Lehtola, MJT Oliveira, MAL Marques          : LibXC Library


 Your calculation uses the libint2 library for the computation of 2-el integrals
 For citations please refer to: http://libint.valeyev.net

 Your ORCA version has been built with support for libXC version: 4.2.3
 For citations please refer to: https://tddft.org/programs/libxc/

 This ORCA versions uses:
   CBLAS   interface :  Fast vector & matrix operations
   LAPACKE interface :  Fast linear algebra routines
   SCALAPACK package :  Parallel linear algebra routines


Your calculation utilizes the atom-pairwise dispersion correction
with the Becke-Johnson damping scheme (D3BJ)
Cite in your paper:
S.Grimme, S.Ehrlich, L.Goerigk, J Comput Chem, (2011), 32, 1456–1465 
S.Grimme, J.Antony, S.Ehrlich and H.Krieg, J.Chem.Phys., 132, (2010), 154104 
   

----- Orbital basis set information -----
Your calculation utilizes the basis: aug-cc-pVTZ 
    H, B-Ne : Obtained from the ccRepo (grant-hill.group.shef.ac.uk/ccrepo) Feb. 2017
              R. A. Kendall, T. H. Dunning, Jr., R. J. Harrison, J. Chem. Phys. 96, 6796 (1992)
         He : Obtained from the ccRepo (grant-hill.group.shef.ac.uk/ccrepo) Feb. 2017
              D. E. Woon, T. H. Dunning, Jr., J. Chem. Phys. 100, 2975 (1994)
  Li-Be, Na : Obtained from the ccRepo (grant-hill.group.shef.ac.uk/ccrepo) Feb. 2017
              B. P. Prascher, D. E. Woon, K. A. Peterson, T. H. Dunning, Jr., A. K. Wilson, Theor. Chem. Acc. 128, 69 (2011)
         Mg : Obtained from the Peterson Research Group Website (tyr0.chem.wsu.edu/~kipeters) Feb. 2017
              B. P. Prascher, D. E. Woon, K. A. Peterson, T. H. Dunning, Jr., A. K. Wilson, Theor. Chem. Acc. 128, 69 (2011)
      Al-Ar : Obtained from the ccRepo (grant-hill.group.shef.ac.uk/ccrepo) Feb. 2017
              D. E. Woon, T. H. Dunning, Jr., J. Chem. Phys. 98, 1358 (1993)
      Sc-Zn : Obtained from the ccRepo (grant-hill.group.shef.ac.uk/ccrepo) Feb. 2017
              N. B. Balabanov, K. A. Peterson, J. Chem. Phys. 123, 064107 (2005)
              N. B. Balabanov, K. A. Peterson, J. Chem. Phys. 125, 074110 (2006)
      Ga-Kr : Obtained from the ccRepo (grant-hill.group.shef.ac.uk/ccrepo) Feb. 2017
              A. K. Wilson, D. E. Woon, K. A. Peterson, T. H. Dunning, Jr., J. Chem. Phys. 110, 7667 (1999)
     Ag, Au : Obtained from the Peterson Research Group Website (tyr0.chem.wsu.edu/~kipeters) Feb. 2017
              K. A. Peterson, C. Puzzarini, Theor. Chem. Acc. 114, 283 (2005)

----- AuxJ basis set information -----
Your calculation utilizes the auxiliary basis: def2/J
   F. Weigend, Phys. Chem. Chem. Phys. 8, 1057 (2006).

================================================================================
                                        WARNINGS
                       Please study these warnings very carefully!
================================================================================


WARNING: your system is open-shell and RHF/RKS was chosen
  ===> : WILL SWITCH to UHF/UKS


WARNING: Geometry Optimization
  ===> : Switching off AutoStart
         For restart on a previous wavefunction, please use MOREAD

INFO   : the flag for use of LIBINT has been found!

================================================================================
                                       INPUT FILE
================================================================================
NAME = 48_NiS.in
|  1> #
|  2> # 48_NiS tpss/aug-cc-pvtz
|  3> #
|  4> ! tpss d3bj aug-cc-pvtz def2/j opt xyzfile
|  5> 
|  6> *xyz 0 3
|  7> Ni 0.0 0.0 0.0
|  8> S 0.0 0.0 2.0
|  9> *
| 10> 
| 11> %pal
| 12> nprocs 24
| 13> end
| 14> 
| 15> 
| 16>                          ****END OF INPUT****
================================================================================

                       *****************************
                       * Geometry Optimization Run *
                       *****************************

Geometry optimization settings:
Update method            Update   .... BFGS
Choice of coordinates    CoordSys .... Z-matrix Internals
Initial Hessian          InHess   .... Almoef's Model

Convergence Tolerances:
Energy Change            TolE     ....  5.0000e-06 Eh
Max. Gradient            TolMAXG  ....  3.0000e-04 Eh/bohr
RMS Gradient             TolRMSG  ....  1.0000e-04 Eh/bohr
Max. Displacement        TolMAXD  ....  4.0000e-03 bohr
RMS Displacement         TolRMSD  ....  2.0000e-03 bohr
Strict Convergence                ....  False
------------------------------------------------------------------------------
                        ORCA OPTIMIZATION COORDINATE SETUP
------------------------------------------------------------------------------

The optimization will be done in new redundant internal coordinates
Making redundant internal coordinates   ...  (new redundants) done
Evaluating the initial hessian          ...  (Almloef) done
Evaluating the coordinates              ...  done
Calculating the B-matrix                .... done
Calculating the G-matrix                .... done
Diagonalizing the G-matrix              .... done
The first mode is                       ....    0
The number of degrees of freedom        ....    1

    -----------------------------------------------------------------
                    Redundant Internal Coordinates


    -----------------------------------------------------------------
         Definition                    Initial Value    Approx d2E/dq
    -----------------------------------------------------------------
      1. B(S   1,Ni  0)                  2.0000         1.813072   
    -----------------------------------------------------------------

Number of atoms                         .... 2
Number of degrees of freedom            .... 1

         *************************************************************
         *                GEOMETRY OPTIMIZATION CYCLE   1            *
         *************************************************************
---------------------------------
CARTESIAN COORDINATES (ANGSTROEM)
---------------------------------
  Ni     0.000000    0.000000    0.000000
  S      0.000000    0.000000    2.000000

----------------------------
CARTESIAN COORDINATES (A.U.)
----------------------------
  NO LB      ZA    FRAG     MASS         X           Y           Z
   0 Ni   28.0000    0    58.700    0.000000    0.000000    0.000000
   1 S    16.0000    0    32.060    0.000000    0.000000    3.779452

--------------------------------
INTERNAL COORDINATES (ANGSTROEM)
--------------------------------
 Ni     0   0   0     0.000000000000     0.00000000     0.00000000
 S      1   0   0     2.000000000000     0.00000000     0.00000000

---------------------------
INTERNAL COORDINATES (A.U.)
---------------------------
 Ni     0   0   0     0.000000000000     0.00000000     0.00000000
 S      1   0   0     3.779452267843     0.00000000     0.00000000

---------------------
BASIS SET INFORMATION
---------------------
There are 2 groups of distinct atoms

 Group   1 Type Ni  : 116s77p23d3f2g contracted to 8s7p5d3f2g pattern {19191919191911/151515151511/77711/111/11}
 Group   2 Type S   : 42s17p3d2f contracted to 6s5p3d2f pattern {131313111/77111/111/11}

Atom   0Ni   basis set group =>   1
Atom   1S    basis set group =>   2
---------------------------------
AUXILIARY/J BASIS SET INFORMATION
---------------------------------
There are 2 groups of distinct atoms

 Group   1 Type Ni  : 19s5p5d3f3g contracted to 8s5p5d2f3g pattern {121111111/11111/11111/21/111}
 Group   2 Type S   : 14s5p5d2f1g contracted to 8s4p3d1f1g pattern {71111111/2111/311/2/1}

Atom   0Ni   basis set group =>   1
Atom   1S    basis set group =>   2


           ************************************************************
           *        Program running with 24 parallel MPI-processes    *
           *              working on a common directory               *
           ************************************************************
------------------------------------------------------------------------------
                           ORCA GTO INTEGRAL CALCULATION
                           -- RI-GTO INTEGRALS CHOSEN --
------------------------------------------------------------------------------

                         BASIS SET STATISTICS AND STARTUP INFO

Gaussian basis set:
 # of primitive gaussian shells          ...  285
 # of primitive gaussian functions       ...  623
 # of contracted shells                  ...   41
 # of contracted basis functions         ...  143
 Highest angular momentum                ...    4
 Maximum contraction depth               ...   19
Auxiliary gaussian basis set:
 # of primitive gaussian shells          ...   62
 # of primitive gaussian functions       ...  184
 # of contracted shells                  ...   40
 # of contracted aux-basis functions     ...  140
 Highest angular momentum                ...    4
 Maximum contraction depth               ...   12
Ratio of auxiliary to basis functions    ...  0.98
Integral package used                  ... LIBINT
 One Electron integrals                  ... done
 Ordering auxiliary basis shells         ... done
 Integral threshhold             Thresh  ...  2.500e-11
 Primitive cut-off               TCut    ...  2.500e-12
 Pre-screening matrix                    ... done
 Shell pair data                         ... 
 Ordering of the shell pairs             ... done (   0.000 sec) 861 of 861 pairs
 Determination of significant pairs      ... done (   0.000 sec)
 Creation of shell pair data             ... done (   0.001 sec)
 Storage of shell pair data              ... done (   0.018 sec)
 Shell pair data done in (   0.020 sec)
 Computing two index integrals           ... done
 Cholesky decomposition of the V-matrix  ... done


Timings:
 Total evaluation time                   ...   2.601 sec (  0.043 min)
 One electron matrix time                ...   0.049 sec (  0.001 min) =  1.9%
 Schwartz matrix evaluation time         ...   2.503 sec (  0.042 min) = 96.2%
 Two index repulsion integral time       ...   0.001 sec (  0.000 min) =  0.0%
 Cholesky decomposition of V             ...   0.001 sec (  0.000 min) =  0.0%
 Three index repulsion integral time     ...   0.000 sec (  0.000 min) =  0.0%



           ************************************************************
           *        Program running with 24 parallel MPI-processes    *
           *              working on a common directory               *
           ************************************************************
-------------------------------------------------------------------------------
                                 ORCA SCF
-------------------------------------------------------------------------------

------------
SCF SETTINGS
------------
Hamiltonian:
 Density Functional     Method          .... DFT(GTOs)
 Exchange Functional    Exchange        .... TPSS
 Correlation Functional Correlation     .... TPSS
 LDA part of GGA corr.  LDAOpt          .... PW91-LDA
 Gradients option       PostSCFGGA      .... off
   Density functional embedding theory  .... OFF
   NL short-range parameter             ....  5.000000
 RI-approximation to the Coulomb term is turned on
   Number of auxiliary basis functions  .... 140


General Settings:
 Integral files         IntName         .... 48_NiS
 Hartree-Fock type      HFTyp           .... UHF
 Total Charge           Charge          ....    0
 Multiplicity           Mult            ....    3
 Number of Electrons    NEL             ....   44
 Basis Dimension        Dim             ....  143
 Nuclear Repulsion      ENuc            ....    118.5356946592 Eh

Convergence Acceleration:
 DIIS                   CNVDIIS         .... on
   Start iteration      DIISMaxIt       ....    12
   Startup error        DIISStart       ....  0.200000
   # of expansion vecs  DIISMaxEq       ....     5
   Bias factor          DIISBfac        ....   1.050
   Max. coefficient     DIISMaxC        ....  10.000
 Newton-Raphson         CNVNR           .... off
 SOSCF                  CNVSOSCF        .... off
 Level Shifting         CNVShift        .... on
   Level shift para.    LevelShift      ....    0.2500
   Turn off err/grad.   ShiftErr        ....    0.0010
 Zerner damping         CNVZerner       .... off
 Static damping         CNVDamp         .... on
   Fraction old density DampFac         ....    0.7000
   Max. Damping (<1)    DampMax         ....    0.9800
   Min. Damping (>=0)   DampMin         ....    0.0000
   Turn off err/grad.   DampErr         ....    0.1000
 Fernandez-Rico         CNVRico         .... off

SCF Procedure:
 Maximum # iterations   MaxIter         ....   125
 SCF integral mode      SCFMode         .... Direct
   Integral package                     .... LIBINT
 Reset frequency        DirectResetFreq ....    20
 Integral Threshold     Thresh          ....  2.500e-11 Eh
 Primitive CutOff       TCut            ....  2.500e-12 Eh

Convergence Tolerance:
 Convergence Check Mode ConvCheckMode   .... Total+1el-Energy
 Convergence forced     ConvForced      .... 0
 Energy Change          TolE            ....  1.000e-08 Eh
 1-El. energy change                    ....  1.000e-05 Eh
 DIIS Error             TolErr          ....  5.000e-07


Diagonalization of the overlap matrix:
Smallest eigenvalue                        ... 1.326e-04
Time for diagonalization                   ...    0.005 sec
Threshold for overlap eigenvalues          ... 1.000e-08
Number of eigenvalues below threshold      ... 0
Time for construction of square roots      ...    0.002 sec
Total time needed                          ...    0.007 sec

-------------------
DFT GRID GENERATION
-------------------

General Integration Accuracy     IntAcc      ...  4.340
Radial Grid Type                 RadialGrid  ... Gauss-Chebyshev
Angular Grid (max. acc.)         AngularGrid ... Lebedev-110
Angular grid pruning method      GridPruning ... 3 (G Style)
Weight generation scheme         WeightScheme... Becke
Basis function cutoff            BFCut       ...    1.0000e-11
Integration weight cutoff        WCut        ...    1.0000e-14
Grids for H and He will be reduced by one unit

# of grid points (after initial pruning)     ...   4718 (   0.0 sec)
# of grid points (after weights+screening)   ...   4693 (   0.0 sec)
nearest neighbour list constructed           ...    0.0 sec
Grid point re-assignment to atoms done       ...    0.0 sec
Grid point division into batches done        ...    0.0 sec
Reduced shell lists constructed in    0.0 sec

Total number of grid points                  ...     4693
Total number of batches                      ...       74
Average number of points per batch           ...       63
Average number of grid points per atom       ...     2346
Average number of shells per batch           ...    24.80 (60.49%)
Average number of basis functions per batch  ...    74.40 (52.03%)
Average number of large shells per batch     ...    16.80 (67.74%)
Average number of large basis fcns per batch ...    47.20 (63.44%)
Maximum spatial batch extension              ...  17.39, 26.34, 14.81 au
Average spatial batch extension              ...   0.86,  1.19,  0.80 au

Time for grid setup =    0.025 sec

------------------------------
INITIAL GUESS: MODEL POTENTIAL
------------------------------
Loading Hartree-Fock densities                     ... done
Calculating cut-offs                               ... done
Setting up the integral package                    ... done
Initializing the effective Hamiltonian             ... done
Starting the Coulomb interaction                   ... done (   0.0 sec)
Reading the grid                                   ... done
Mapping shells                                     ... done
Starting the XC term evaluation                    ... done (   0.0 sec)
  promolecular density results
     # of electrons  =     43.999939367
     EX              =    -86.409637109
     EC              =     -1.891712087
     EX+EC           =    -88.301349197
Transforming the Hamiltonian                       ... done (   0.0 sec)
Diagonalizing the Hamiltonian                      ... done (   0.0 sec)
Back transforming the eigenvectors                 ... done (   0.0 sec)
Now organizing SCF variables                       ... done
                      ------------------
                      INITIAL GUESS DONE (   0.1 sec)
                      ------------------
--------------
SCF ITERATIONS
--------------
ITER       Energy         Delta-E        Max-DP      RMS-DP      [F,P]     Damp
               ***  Starting incremental Fock matrix formation  ***
  0  -1906.5219685364   0.000000000000 0.12777702  0.00150849  0.3204707 0.7000
  1  -1906.5328925414  -0.010924004961 0.02549744  0.00062808  0.1989782 0.7000
                               ***Turning on DIIS***
  2  -1906.5779911057  -0.045098564296 0.08820703  0.00124617  0.0283036 0.0000
  3  -1906.5678491021   0.010142003586 0.01026456  0.00013365  0.2497018 0.7000
  4  -1906.5860150704  -0.018165968331 0.01726416  0.00017156  0.2082640 0.7000
  5  -1906.6049053244  -0.018890253956 0.02131977  0.00018725  0.1617321 0.7000
  6  -1906.6202451367  -0.015339812299 0.02333087  0.00019408  0.1177927 0.7000
  7  -1906.6311128075  -0.010867670840 0.08751473  0.00071966  0.0784849 0.0000
  8  -1906.6396869646  -0.008574157075 0.00661616  0.00011496  0.0472233 0.0000
  9  -1906.6415454249  -0.001858460316 0.00418765  0.00006606  0.0313978 0.0000
 10  -1906.6423591096  -0.000813684738 0.00298352  0.00005289  0.0191147 0.0000
 11  -1906.6427916128  -0.000432503182 0.00175181  0.00002944  0.0106166 0.0000
 12  -1906.6429255308  -0.000133918008 0.00173169  0.00002552  0.0043894 0.0000
 13  -1906.6429677854  -0.000042254594 0.00131348  0.00001983  0.0009587 0.0000
 14  -1906.6429703036  -0.000002518125 0.00045306  0.00000573  0.0009570 0.0000
 15  -1906.6429703643  -0.000000060747 0.00052735  0.00000475  0.0001905 0.0000
 16  -1906.6429712586  -0.000000894299 0.00021846  0.00000196  0.0003527 0.0000
 17  -1906.6429711145   0.000000144109 0.00003174  0.00000042  0.0000489 0.0000
 18  -1906.6429710583   0.000000056161 0.00001538  0.00000018  0.0000240 0.0000
 19  -1906.6429710018   0.000000056528 0.00001015  0.00000012  0.0000091 0.0000
               *** Restarting incremental Fock matrix formation ***
                                   *** Resetting DIIS ***
 20  -1906.6429723821  -0.000001380278 0.00038210  0.00000467  0.0001245 0.0000
 21  -1906.6429724620  -0.000000079869 0.00016782  0.00000131  0.0000456 0.0000
 22  -1906.6429725843  -0.000000122395 0.00014111  0.00000111  0.0002159 0.0000
 23  -1906.6429725181   0.000000066207 0.00000872  0.00000008  0.0000042 0.0000
 24  -1906.6429725391  -0.000000021002 0.00000489  0.00000004  0.0000047 0.0000
                            ***DIIS convergence achieved***

               *****************************************************
               *                     SUCCESS                       *
               *           SCF CONVERGED AFTER  25 CYCLES          *
               *****************************************************

Setting up the final grid:

General Integration Accuracy     IntAcc      ...  4.670
Radial Grid Type                 RadialGrid  ... Gauss-Chebyshev
Angular Grid (max. acc.)         AngularGrid ... Lebedev-302
Angular grid pruning method      GridPruning ... 3 (G Style)
Weight generation scheme         WeightScheme... Becke
Basis function cutoff            BFCut       ...    1.0000e-11
Integration weight cutoff        WCut        ...    1.0000e-14
Grids for H and He will be reduced by one unit

# of grid points (after initial pruning)     ...  16510 (   0.0 sec)
# of grid points (after weights+screening)   ...  16482 (   0.0 sec)
nearest neighbour list constructed           ...    0.0 sec
Grid point re-assignment to atoms done       ...    0.0 sec
Grid point division into batches done        ...    0.1 sec
Reduced shell lists constructed in    0.1 sec

Total number of grid points                  ...    16482
Total number of batches                      ...      258
Average number of points per batch           ...       63
Average number of grid points per atom       ...     8241
Average number of shells per batch           ...    18.08 (44.11%)
Average number of basis functions per batch  ...    44.42 (31.06%)
Average number of large shells per batch     ...    10.50 (58.06%)
Average number of large basis fcns per batch ...    25.00 (56.29%)
Maximum spatial batch extension              ...  23.02, 23.02, 16.62 au
Average spatial batch extension              ...   0.79,  0.78,  0.60 au

Final grid set up in    0.2 sec
Final integration                            ... done (   0.0 sec)
Change in XC energy                          ...     0.000362576
Integrated number of electrons               ...    44.000016840
Previous integrated no of electrons          ...    43.999864041

----------------
TOTAL SCF ENERGY
----------------

Total Energy       :        -1906.64260994 Eh          -51882.38307 eV

Components:
Nuclear Repulsion  :          118.53569466 Eh            3225.52023 eV
Electronic Energy  :        -2025.17830460 Eh          -55107.90330 eV
One Electron Energy:        -2882.85307483 Eh          -78446.42031 eV
Two Electron Energy:          857.67477023 Eh           23338.51701 eV

Virial components:
Potential Energy   :        -3809.94213450 Eh         -103673.79615 eV
Kinetic Energy     :         1903.29952457 Eh           51791.41309 eV
Virial Ratio       :            2.00175647


DFT components:
N(Alpha)           :       23.000008911500 electrons
N(Beta)            :       21.000007928564 electrons
N(Total)           :       44.000016840064 electrons
E(X)               :      -86.985455689559 Eh       
E(C)               :       -1.908059701954 Eh       
E(XC)              :      -88.893515391513 Eh       
DFET-embed. en.    :        0.000000000000 Eh       

---------------
SCF CONVERGENCE
---------------

  Last Energy change         ...    2.6386e-08  Tolerance :   1.0000e-08
  Last MAX-Density change    ...    1.0358e-05  Tolerance :   1.0000e-07
  Last RMS-Density change    ...    1.1319e-07  Tolerance :   5.0000e-09
  Last DIIS Error            ...    2.7778e-07  Tolerance :   5.0000e-07

             **** THE GBW FILE WAS UPDATED (48_NiS.gbw) ****
             **** DENSITY FILE WAS UPDATED (48_NiS.scfp) ****
             **** ENERGY FILE WAS UPDATED (48_NiS.en.tmp) ****
----------------------
UHF SPIN CONTAMINATION
----------------------

Warning: in a DFT calculation there is little theoretical justification to 
         calculate <S**2> as in Hartree-Fock theory. We will do it anyways
         but you should keep in mind that the values have only limited relevance

Expectation value of <S**2>     :     2.007521
Ideal value S*(S+1) for S=1.0   :     2.000000
Deviation                       :     0.007521

             **** THE GBW FILE WAS UPDATED (48_NiS.gbw) ****
             **** DENSITY FILE WAS UPDATED (48_NiS.scfp) ****
----------------
ORBITAL ENERGIES
----------------
                 SPIN UP ORBITALS
  NO   OCC          E(Eh)            E(eV) 
   0   1.0000    -298.960079     -8135.1173 
   1   1.0000     -88.383188     -2405.0288 
   2   1.0000     -35.370223      -962.4727 
   3   1.0000     -30.816671      -838.5642 
   4   1.0000     -30.799216      -838.0893 
   5   1.0000     -30.799216      -838.0893 
   6   1.0000      -7.735479      -210.4931 
   7   1.0000      -5.715711      -155.5324 
   8   1.0000      -5.715711      -155.5324 
   9   1.0000      -5.711742      -155.4244 
  10   1.0000      -3.905123      -106.2638 
  11   1.0000      -2.544617       -69.2425 
  12   1.0000      -2.496732       -67.9395 
  13   1.0000      -2.496732       -67.9395 
  14   1.0000      -0.622000       -16.9255 
  15   1.0000      -0.302139        -8.2216 
  16   1.0000      -0.290852        -7.9145 
  17   1.0000      -0.290852        -7.9145 
  18   1.0000      -0.221624        -6.0307 
  19   1.0000      -0.221393        -6.0244 
  20   1.0000      -0.216784        -5.8990 
  21   1.0000      -0.216054        -5.8791 
  22   1.0000      -0.216054        -5.8791 
  23   0.0000      -0.123708        -3.3663 
  24   0.0000      -0.016844        -0.4584 
  25   0.0000      -0.016844        -0.4584 
  26   0.0000       0.005915         0.1609 
  27   0.0000       0.008590         0.2338 
  28   0.0000       0.033698         0.9170 
  29   0.0000       0.033698         0.9170 
  30   0.0000       0.056735         1.5438 
  31   0.0000       0.071082         1.9342 
  32   0.0000       0.071376         1.9422 
  33   0.0000       0.076718         2.0876 
  34   0.0000       0.076718         2.0876 
  35   0.0000       0.078490         2.1358 
  36   0.0000       0.107162         2.9160 
  37   0.0000       0.107162         2.9160 
  38   0.0000       0.109325         2.9749 
  39   0.0000       0.129708         3.5295 
  40   0.0000       0.188520         5.1299 
  41   0.0000       0.188520         5.1299 
  42   0.0000       0.193200         5.2573 
  43   0.0000       0.193225         5.2579 
  44   0.0000       0.215251         5.8573 
  45   0.0000       0.229044         6.2326 
  46   0.0000       0.275588         7.4991 
  47   0.0000       0.275588         7.4991 
  48   0.0000       0.325699         8.8627 
  49   0.0000       0.346511         9.4290 
  50   0.0000       0.347456         9.4548 
  51   0.0000       0.392985        10.6937 
  52   0.0000       0.392985        10.6937 
  53   0.0000       0.477355        12.9895 
  54   0.0000       0.477355        12.9895 
  55   0.0000       0.509990        13.8775 
  56   0.0000       0.542402        14.7595 
  57   0.0000       0.558483        15.1971 
  58   0.0000       0.558486        15.1972 
  59   0.0000       0.611437        16.6380 
  60   0.0000       0.611437        16.6380 
  61   0.0000       0.633314        17.2333 
  62   0.0000       0.682483        18.5713 
  63   0.0000       0.688799        18.7432 
  64   0.0000       0.688799        18.7432 
  65   0.0000       0.736290        20.0355 
  66   0.0000       0.736728        20.0474 
  67   0.0000       0.849332        23.1115 
  68   0.0000       0.849332        23.1115 
  69   0.0000       0.865221        23.5439 
  70   0.0000       0.952657        25.9231 
  71   0.0000       0.952657        25.9231 
  72   0.0000       1.138887        30.9907 
  73   0.0000       1.249146        33.9910 
  74   0.0000       1.249146        33.9910 
  75   0.0000       1.359469        36.9930 
  76   0.0000       1.360341        37.0168 
  77   0.0000       1.360466        37.0202 
  78   0.0000       1.400714        38.1154 
  79   0.0000       1.400913        38.1208 
  80   0.0000       1.402137        38.1541 
  81   0.0000       1.402137        38.1541 
  82   0.0000       1.462493        39.7965 
  83   0.0000       1.619701        44.0743 
  84   0.0000       1.619701        44.0743 
  85   0.0000       1.746056        47.5126 
  86   0.0000       1.747159        47.5426 
  87   0.0000       1.856150        50.5084 
  88   0.0000       1.856150        50.5084 
  89   0.0000       1.913769        52.0763 
  90   0.0000       2.049661        55.7741 
  91   0.0000       2.055725        55.9391 
  92   0.0000       2.055725        55.9391 
  93   0.0000       2.059578        56.0440 
  94   0.0000       2.059578        56.0440 
  95   0.0000       2.084481        56.7216 
  96   0.0000       2.086823        56.7853 
  97   0.0000       2.181186        59.3531 
  98   0.0000       2.350778        63.9679 
  99   0.0000       2.350778        63.9679 
 100   0.0000       3.008154        81.8560 
 101   0.0000       3.557065        96.7927 
 102   0.0000       3.801294       103.4385 
 103   0.0000       3.801294       103.4385 
 104   0.0000       3.844637       104.6179 
 105   0.0000       3.846950       104.6808 
 106   0.0000       3.860955       105.0619 
 107   0.0000       3.860955       105.0619 
 108   0.0000       3.974316       108.1466 
 109   0.0000       3.974316       108.1466 
 110   0.0000       4.020152       109.3939 
 111   0.0000       4.374457       119.0350 
 112   0.0000       4.812598       130.9574 
 113   0.0000       4.971745       135.2881 
 114   0.0000       4.971745       135.2881 
 115   0.0000       4.979827       135.5080 
 116   0.0000       4.983303       135.6026 
 117   0.0000       4.993788       135.8879 
 118   0.0000       4.996320       135.9568 
 119   0.0000       5.092768       138.5813 
 120   0.0000       5.092768       138.5813 
 121   0.0000       5.382405       146.4627 
 122   0.0000       5.541818       150.8005 
 123   0.0000       5.542872       150.8292 
 124   0.0000       5.749499       156.4518 
 125   0.0000       5.749499       156.4518 
 126   0.0000       6.788372       184.7210 
 127   0.0000      12.282381       334.2206 
 128   0.0000      12.282441       334.2222 
 129   0.0000      12.291286       334.4629 
 130   0.0000      12.291286       334.4629 
 131   0.0000      12.366095       336.4986 
 132   0.0000      12.366095       336.4986 
 133   0.0000      12.391925       337.2014 
 134   0.0000      13.911353       378.5472 
 135   0.0000      13.911353       378.5472 
 136   0.0000      13.912113       378.5678 
 137   0.0000      13.912214       378.5706 
 138   0.0000      13.949494       379.5850 
 139   0.0000      13.950899       379.6233 
 140   0.0000      13.981632       380.4596 
 141   0.0000      13.981632       380.4596 
 142   0.0000      14.060609       382.6086 

                 SPIN DOWN ORBITALS
  NO   OCC          E(Eh)            E(eV) 
   0   1.0000    -298.959745     -8135.1082 
   1   1.0000     -88.378810     -2404.9097 
   2   1.0000     -35.349687      -961.9139 
   3   1.0000     -30.794714      -837.9668 
   4   1.0000     -30.785183      -837.7074 
   5   1.0000     -30.785183      -837.7074 
   6   1.0000      -7.731512      -210.3851 
   7   1.0000      -5.709466      -155.3625 
   8   1.0000      -5.708005      -155.3227 
   9   1.0000      -5.708005      -155.3227 
  10   1.0000      -3.858123      -104.9849 
  11   1.0000      -2.482430       -67.5504 
  12   1.0000      -2.458062       -66.8873 
  13   1.0000      -2.458062       -66.8873 
  14   1.0000      -0.590621       -16.0716 
  15   1.0000      -0.291307        -7.9269 
  16   1.0000      -0.236968        -6.4482 
  17   1.0000      -0.236968        -6.4482 
  18   1.0000      -0.207931        -5.6581 
  19   1.0000      -0.197178        -5.3655 
  20   1.0000      -0.197095        -5.3632 
  21   0.0000      -0.158295        -4.3074 
  22   0.0000      -0.158295        -4.3074 
  23   0.0000      -0.108768        -2.9597 
  24   0.0000      -0.010237        -0.2786 
  25   0.0000      -0.010237        -0.2786 
  26   0.0000       0.010480         0.2852 
  27   0.0000       0.011709         0.3186 
  28   0.0000       0.037240         1.0134 
  29   0.0000       0.037240         1.0134 
  30   0.0000       0.059464         1.6181 
  31   0.0000       0.074547         2.0285 
  32   0.0000       0.074904         2.0382 
  33   0.0000       0.081924         2.2293 
  34   0.0000       0.083762         2.2793 
  35   0.0000       0.083762         2.2793 
  36   0.0000       0.112049         3.0490 
  37   0.0000       0.112049         3.0490 
  38   0.0000       0.115570         3.1448 
  39   0.0000       0.134438         3.6582 
  40   0.0000       0.194094         5.2816 
  41   0.0000       0.194094         5.2816 
  42   0.0000       0.212827         5.7913 
  43   0.0000       0.212848         5.7919 
  44   0.0000       0.220481         5.9996 
  45   0.0000       0.239815         6.5257 
  46   0.0000       0.289501         7.8777 
  47   0.0000       0.289501         7.8777 
  48   0.0000       0.331601         9.0233 
  49   0.0000       0.351609         9.5678 
  50   0.0000       0.352526         9.5927 
  51   0.0000       0.405254        11.0275 
  52   0.0000       0.405254        11.0275 
  53   0.0000       0.494671        13.4607 
  54   0.0000       0.494671        13.4607 
  55   0.0000       0.519786        14.1441 
  56   0.0000       0.549498        14.9526 
  57   0.0000       0.591865        16.1055 
  58   0.0000       0.591905        16.1065 
  59   0.0000       0.624393        16.9906 
  60   0.0000       0.624393        16.9906 
  61   0.0000       0.649157        17.6645 
  62   0.0000       0.695165        18.9164 
  63   0.0000       0.712097        19.3771 
  64   0.0000       0.712097        19.3771 
  65   0.0000       0.750324        20.4174 
  66   0.0000       0.750776        20.4297 
  67   0.0000       0.859982        23.4013 
  68   0.0000       0.859982        23.4013 
  69   0.0000       0.879944        23.9445 
  70   0.0000       0.967344        26.3228 
  71   0.0000       0.967344        26.3228 
  72   0.0000       1.151546        31.3352 
  73   0.0000       1.254714        34.1425 
  74   0.0000       1.254714        34.1425 
  75   0.0000       1.375933        37.4410 
  76   0.0000       1.381784        37.6003 
  77   0.0000       1.382954        37.6321 
  78   0.0000       1.412553        38.4375 
  79   0.0000       1.412804        38.4443 
  80   0.0000       1.435507        39.0621 
  81   0.0000       1.435507        39.0621 
  82   0.0000       1.475660        40.1547 
  83   0.0000       1.637401        44.5560 
  84   0.0000       1.637401        44.5560 
  85   0.0000       1.781594        48.4796 
  86   0.0000       1.782470        48.5035 
  87   0.0000       1.879201        51.1357 
  88   0.0000       1.879201        51.1357 
  89   0.0000       1.930353        52.5276 
  90   0.0000       2.067580        56.2617 
  91   0.0000       2.078885        56.5693 
  92   0.0000       2.078885        56.5693 
  93   0.0000       2.099874        57.1405 
  94   0.0000       2.099874        57.1405 
  95   0.0000       2.112381        57.4808 
  96   0.0000       2.114592        57.5410 
  97   0.0000       2.194982        59.7285 
  98   0.0000       2.375191        64.6322 
  99   0.0000       2.375191        64.6322 
 100   0.0000       3.032839        82.5277 
 101   0.0000       3.590041        97.6900 
 102   0.0000       3.814267       103.7915 
 103   0.0000       3.814267       103.7915 
 104   0.0000       3.885530       105.7306 
 105   0.0000       3.885530       105.7306 
 106   0.0000       3.889355       105.8347 
 107   0.0000       3.891338       105.8887 
 108   0.0000       4.007233       109.0424 
 109   0.0000       4.007233       109.0424 
 110   0.0000       4.037827       109.8748 
 111   0.0000       4.403421       119.8232 
 112   0.0000       4.828452       131.3889 
 113   0.0000       5.000733       136.0769 
 114   0.0000       5.002237       136.1178 
 115   0.0000       5.002237       136.1178 
 116   0.0000       5.003249       136.1453 
 117   0.0000       5.010847       136.3521 
 118   0.0000       5.013852       136.4338 
 119   0.0000       5.116714       139.2329 
 120   0.0000       5.116714       139.2329 
 121   0.0000       5.398146       146.8910 
 122   0.0000       5.566287       151.4664 
 123   0.0000       5.567112       151.4888 
 124   0.0000       5.803562       157.9229 
 125   0.0000       5.803562       157.9229 
 126   0.0000       6.818704       185.5464 
 127   0.0000      12.322668       335.3168 
 128   0.0000      12.322668       335.3168 
 129   0.0000      12.365723       336.4884 
 130   0.0000      12.365819       336.4910 
 131   0.0000      12.427154       338.1601 
 132   0.0000      12.427154       338.1601 
 133   0.0000      12.433862       338.3426 
 134   0.0000      13.967985       380.0882 
 135   0.0000      13.967985       380.0882 
 136   0.0000      13.968474       380.1015 
 137   0.0000      13.969221       380.1218 
 138   0.0000      13.977894       380.3578 
 139   0.0000      13.979432       380.3997 
 140   0.0000      14.029157       381.7528 
 141   0.0000      14.029157       381.7528 
 142   0.0000      14.103929       383.7874 

                    ********************************
                    * MULLIKEN POPULATION ANALYSIS *
                    ********************************

--------------------------------------------
MULLIKEN ATOMIC CHARGES AND SPIN POPULATIONS
--------------------------------------------
   0 Ni:    0.262684    1.040569
   1 S :   -0.262684    0.959431
Sum of atomic charges         :   -0.0000000
Sum of atomic spin populations:    2.0000000

-----------------------------------------------------
MULLIKEN REDUCED ORBITAL CHARGES AND SPIN POPULATIONS
-----------------------------------------------------
CHARGE
  0 Nis       :     6.707757  s :     6.707757
      pz      :     4.072308  p :    12.178042
      px      :     4.052867
      py      :     4.052867
      dz2     :     1.865113  d :     8.843127
      dxz     :     1.492174
      dyz     :     1.492174
      dx2y2   :     1.996834
      dxy     :     1.996831
      f0      :     0.002468  f :     0.008049
      f+1     :     0.002745
      f-1     :     0.002745
      f+2     :     0.000047
      f-2     :     0.000045
      f+3     :     0.000000
      f-3     :     0.000000
      g0      :     0.000141  g :     0.000341
      g+1     :     0.000086
      g-1     :     0.000086
      g+2     :     0.000014
      g-2     :     0.000015
      g+3     :     0.000000
      g-3     :     0.000000
      g+4     :     0.000000
      g-4     :     0.000000
  1 S s       :     5.966837  s :     5.966837
      pz      :     3.381122  p :    10.248591
      px      :     3.433734
      py      :     3.433734
      dz2     :     0.004197  d :     0.039917
      dxz     :     0.015823
      dyz     :     0.015823
      dx2y2   :     0.002042
      dxy     :     0.002032
      f0      :     0.000057  f :     0.007339
      f+1     :     0.002571
      f-1     :     0.002571
      f+2     :     0.001064
      f-2     :     0.001077
      f+3     :     0.000000
      f-3     :     0.000000

SPIN
  0 Nis       :     0.027337  s :     0.027337
      pz      :     0.002312  p :     0.033740
      px      :     0.015714
      py      :     0.015714
      dz2     :     0.007159  d :     0.977691
      dxz     :     0.485236
      dyz     :     0.485236
      dx2y2   :     0.000032
      dxy     :     0.000027
      f0      :     0.000364  f :     0.001821
      f+1     :     0.000704
      f-1     :     0.000704
      f+2     :     0.000025
      f-2     :     0.000025
      f+3     :     0.000000
      f-3     :     0.000000
      g0      :    -0.000030  g :    -0.000020
      g+1     :    -0.000009
      g-1     :    -0.000009
      g+2     :     0.000013
      g-2     :     0.000014
      g+3     :     0.000000
      g-3     :     0.000000
      g+4     :     0.000000
      g-4     :    -0.000000
  1 S s       :    -0.012806  s :    -0.012806
      pz      :    -0.023263  p :     0.980136
      px      :     0.501699
      py      :     0.501699
      dz2     :    -0.001233  d :    -0.005783
      dxz     :    -0.002213
      dyz     :    -0.002213
      dx2y2   :    -0.000063
      dxy     :    -0.000061
      f0      :     0.000158  f :    -0.002117
      f+1     :    -0.001131
      f-1     :    -0.001131
      f+2     :    -0.000008
      f-2     :    -0.000006
      f+3     :     0.000000
      f-3     :     0.000000


                     *******************************
                     * LOEWDIN POPULATION ANALYSIS *
                     *******************************

-------------------------------------------
LOEWDIN ATOMIC CHARGES AND SPIN POPULATIONS
-------------------------------------------
   0 Ni:   -0.020702    1.130572
   1 S :    0.020702    0.869428

----------------------------------------------------
LOEWDIN REDUCED ORBITAL CHARGES AND SPIN POPULATIONS
----------------------------------------------------
CHARGE
  0 Nis       :     6.538321  s :     6.538321
      pz      :     4.236974  p :    12.394692
      px      :     4.078859
      py      :     4.078859
      dz2     :     1.985519  d :     9.031319
      dxz     :     1.539538
      dyz     :     1.539538
      dx2y2   :     1.983354
      dxy     :     1.983370
      f0      :     0.024661  f :     0.055484
      f+1     :     0.015209
      f-1     :     0.015209
      f+2     :     0.000202
      f-2     :     0.000204
      f+3     :     0.000000
      f-3     :     0.000000
      g0      :     0.000444  g :     0.000886
      g+1     :     0.000211
      g-1     :     0.000211
      g+2     :     0.000010
      g-2     :     0.000011
      g+3     :     0.000000
      g-3     :     0.000000
      g+4     :     0.000000
      g-4     :     0.000000
  1 S s       :     5.517672  s :     5.517672
      pz      :     3.494101  p :    10.071557
      px      :     3.288728
      py      :     3.288728
      dz2     :     0.121726  d :     0.216971
      dxz     :     0.041575
      dyz     :     0.041575
      dx2y2   :     0.006054
      dxy     :     0.006040
      f0      :     0.080582  f :     0.173097
      f+1     :     0.035881
      f-1     :     0.035881
      f+2     :     0.010380
      f-2     :     0.010375
      f+3     :     0.000000
      f-3     :     0.000000

SPIN
  0 Nis       :     0.006885  s :     0.006885
      pz      :    -0.007003  p :     0.106847
      px      :     0.056925
      py      :     0.056925
      dz2     :     0.004423  d :     1.001945
      dxz     :     0.498067
      dyz     :     0.498067
      dx2y2   :     0.000693
      dxy     :     0.000695
      f0      :     0.000357  f :     0.014795
      f+1     :     0.007137
      f-1     :     0.007137
      f+2     :     0.000082
      f-2     :     0.000082
      f+3     :     0.000000
      f-3     :     0.000000
      g0      :    -0.000035  g :     0.000101
      g+1     :     0.000058
      g-1     :     0.000058
      g+2     :     0.000009
      g-2     :     0.000010
      g+3     :     0.000000
      g-3     :     0.000000
      g+4     :     0.000000
      g-4     :    -0.000000
  1 S s       :     0.004974  s :     0.004974
      pz      :    -0.010076  p :     0.841991
      px      :     0.426033
      py      :     0.426033
      dz2     :     0.000677  d :     0.012963
      dxz     :     0.006493
      dyz     :     0.006493
      dx2y2   :    -0.000350
      dxy     :    -0.000351
      f0      :    -0.000201  f :     0.009501
      f+1     :     0.005287
      f-1     :     0.005287
      f+2     :    -0.000435
      f-2     :    -0.000436
      f+3     :     0.000000
      f-3     :     0.000000


                      *****************************
                      * MAYER POPULATION ANALYSIS *
                      *****************************

  NA   - Mulliken gross atomic population
  ZA   - Total nuclear charge
  QA   - Mulliken gross atomic charge
  VA   - Mayer's total valence
  BVA  - Mayer's bonded valence
  FA   - Mayer's free valence

  ATOM       NA         ZA         QA         VA         BVA        FA
  0 Ni    27.7373    28.0000     0.2627     2.8421     2.2561     0.5860
  1 S     16.2627    16.0000    -0.2627     2.7709     2.2561     0.5148

  Mayer bond orders larger than 0.100000
B(  0-Ni,  1-S ) :   2.2561 

-------
TIMINGS
-------

Total SCF time: 0 days 0 hours 0 min 4 sec 

Total time                  ....       4.629 sec
Sum of individual times     ....       4.477 sec  ( 96.7%)

Fock matrix formation       ....       3.980 sec  ( 86.0%)
  Split-RI-J                ....       3.141 sec  ( 78.9% of F)
  XC integration            ....       0.708 sec  ( 17.8% of F)
    Basis function eval.    ....       0.054 sec  (  7.7% of XC)
    Density eval.           ....       0.061 sec  (  8.7% of XC)
    XC-Functional eval.     ....       0.015 sec  (  2.1% of XC)
    XC-Potential eval.      ....       0.178 sec  ( 25.2% of XC)
Diagonalization             ....       0.130 sec  (  2.8%)
Density matrix formation    ....       0.017 sec  (  0.4%)
Population analysis         ....       0.007 sec  (  0.1%)
Initial guess               ....       0.119 sec  (  2.6%)
Orbital Transformation      ....       0.000 sec  (  0.0%)
Orbital Orthonormalization  ....       0.000 sec  (  0.0%)
DIIS solution               ....       0.046 sec  (  1.0%)
Grid generation             ....       0.178 sec  (  3.8%)


-------------------------------------------------------------------------------
                          DFT DISPERSION CORRECTION                            
                                                                               
                              DFTD3 V3.1  Rev 1                                
                          USING Becke-Johnson damping                          
-------------------------------------------------------------------------------
The TPSS functional is recognized
Active option DFTDOPT                   ...         4   

molecular C6(AA) [au] = 706.738894 


            DFT-D V3
 parameters
 s6 scaling factor         :     1.0000 
 a1 scaling factor         :     0.4535 
 s8 scaling factor         :     1.9435 
 a2 scaling factor         :     4.4752 
 ad hoc parameters k1-k3   :    16.0000     1.3333    -4.0000 

 Edisp/kcal,au: -1.088135404246  -0.001734053960 
 E6   /kcal   :  -0.373841279 
 E8   /kcal   :  -0.714294125 
 % E8         :  65.643864027 

-------------------------   ----------------
Dispersion correction           -0.001734054
-------------------------   ----------------


-------------------------   --------------------
FINAL SINGLE POINT ENERGY     -1906.644343991054
-------------------------   --------------------



           ************************************************************
           *        Program running with 24 parallel MPI-processes    *
           *              working on a common directory               *
           ************************************************************
------------------------------------------------------------------------------
                         ORCA SCF GRADIENT CALCULATION
------------------------------------------------------------------------------

Gradient of the Kohn-Sham DFT energy:
Kohn-Sham wavefunction type      ... UKS
Hartree-Fock exchange scaling    ...    0.000
Number of operators              ...    2
Number of atoms                  ...    2
Basis set dimensions             ...  143
Integral neglect threshold       ... 2.5e-11
Integral primitive cutoff        ... 2.5e-12

Nuclear repulsion gradient       ... done
One Electron Gradient            ... done
Pre-screening matrix             ... done
RI-J gradient                    ... done
Exchange-correlation gradient    ... done
Dispersion correction            ... done

------------------
CARTESIAN GRADIENT
------------------

   1   Ni  :    0.000000002    0.000000002   -0.010879198
   2   S   :   -0.000000000   -0.000000001    0.010778339

Difference to translation invariance:
           :    0.0000000020    0.0000000009   -0.0001008590

Norm of the cartesian gradient     ...    0.0153143576
RMS gradient                       ...    0.0062520603
MAX gradient                       ...    0.0108791982

-------
TIMINGS
-------

Total SCF gradient time            ...        4.532 sec

One electron gradient       ....       0.058 sec  (  1.3%)
Prescreening matrices       ....       3.638 sec  ( 80.3%)
RI-J Coulomb gradient       ....       0.252 sec  (  5.6%)
XC gradient                 ....       0.051 sec  (  1.1%)
------------------------------------------------------------------------------
                         ORCA GEOMETRY RELAXATION STEP
------------------------------------------------------------------------------

Reading the OPT-File                    .... done
Getting information on internals        .... done
Copying old internal coords+grads       .... done
Making the new internal coordinates     .... (new redundants).... done
Validating the new internal coordinates .... (new redundants).... done
Calculating the B-matrix                .... done
Calculating the G,G- and P matrices     .... done
Transforming gradient to internals      .... done
Projecting the internal gradient        .... done
Number of atoms                         ....   2
Number of internal coordinates          ....   1
Current Energy                          .... -1906.644343991 Eh
Current gradient norm                   ....     0.015314358 Eh/bohr
Maximum allowed component of the step   ....  0.300
Current trust radius                    ....  0.300
Evaluating the initial hessian          ....  (Almloef) done
Projecting the Hessian                  .... done
Forming the augmented Hessian           .... done
Diagonalizing the augmented Hessian     .... done
Last element of RFO vector              ....  0.999982166
Lowest eigenvalues of augmented Hessian:
 -0.000064674
Length of the computed step             ....  0.005972395
The final length of the internal step   ....  0.005972395
Converting the step to cartesian space:
 Initial RMS(Int)=    0.0059723952
Transforming coordinates:
 Iter   0:  RMS(Cart)=    0.0017240820 RMS(Int)=    0.0059723952
 Iter   1:  RMS(Cart)=    0.0000000000 RMS(Int)=    0.0000000000
done
Storing new coordinates                 .... done

                                .--------------------.
          ----------------------|Geometry convergence|-------------------------
          Item                value                   Tolerance       Converged
          ---------------------------------------------------------------------
          RMS gradient        0.0108287687            0.0001000000      NO
          MAX gradient        0.0108287687            0.0003000000      NO
          RMS step            0.0059723952            0.0020000000      NO
          MAX step            0.0059723952            0.0040000000      NO
          ........................................................
          Max(Bonds)      0.0032      Max(Angles)    0.00
          Max(Dihed)        0.00      Max(Improp)    0.00
          ---------------------------------------------------------------------

The optimization has not yet converged - more geometry cycles are needed


    ---------------------------------------------------------------------------
                         Redundant Internal Coordinates
                            (Angstroem and degrees)

        Definition                    Value    dE/dq     Step     New-Value
    ----------------------------------------------------------------------------
     1. B(S   1,Ni  0)                2.0000  0.010829 -0.0032    1.9968   
    ----------------------------------------------------------------------------

         *************************************************************
         *                GEOMETRY OPTIMIZATION CYCLE   2            *
         *************************************************************
---------------------------------
CARTESIAN COORDINATES (ANGSTROEM)
---------------------------------
  Ni     0.000000    0.000000    0.001580
  S      0.000000    0.000000    1.998420

----------------------------
CARTESIAN COORDINATES (A.U.)
----------------------------
  NO LB      ZA    FRAG     MASS         X           Y           Z
   0 Ni   28.0000    0    58.700    0.000000    0.000000    0.002986
   1 S    16.0000    0    32.060    0.000000    0.000000    3.776466

--------------------------------
INTERNAL COORDINATES (ANGSTROEM)
--------------------------------
 Ni     0   0   0     0.000000000000     0.00000000     0.00000000
 S      1   0   0     1.996839544589     0.00000000     0.00000000

---------------------------
INTERNAL COORDINATES (A.U.)
---------------------------
 Ni     0   0   0     0.000000000000     0.00000000     0.00000000
 S      1   0   0     3.773479872657     0.00000000     0.00000000



           ************************************************************
           *        Program running with 24 parallel MPI-processes    *
           *              working on a common directory               *
           ************************************************************
 One Electron integrals                  ... done
 Pre-screening matrix                    ... done


           ************************************************************
           *        Program running with 24 parallel MPI-processes    *
           *              working on a common directory               *
           ************************************************************

Diagonalization of the overlap matrix:
Smallest eigenvalue                        ... 1.318e-04
Time for diagonalization                   ...    0.005 sec
Threshold for overlap eigenvalues          ... 1.000e-08
Number of eigenvalues below threshold      ... 0
Time for construction of square roots      ...    0.002 sec
Total time needed                          ...    0.008 sec

-------------------
DFT GRID GENERATION
-------------------

General Integration Accuracy     IntAcc      ...  4.340
Radial Grid Type                 RadialGrid  ... Gauss-Chebyshev
Angular Grid (max. acc.)         AngularGrid ... Lebedev-110
Angular grid pruning method      GridPruning ... 3 (G Style)
Weight generation scheme         WeightScheme... Becke
Basis function cutoff            BFCut       ...    1.0000e-11
Integration weight cutoff        WCut        ...    1.0000e-14
Grids for H and He will be reduced by one unit

# of grid points (after initial pruning)     ...   4718 (   0.0 sec)
# of grid points (after weights+screening)   ...   4692 (   0.0 sec)
nearest neighbour list constructed           ...    0.0 sec
Grid point re-assignment to atoms done       ...    0.0 sec
Grid point division into batches done        ...    0.0 sec
Reduced shell lists constructed in    0.0 sec

Total number of grid points                  ...     4692
Total number of batches                      ...       74
Average number of points per batch           ...       63
Average number of grid points per atom       ...     2346
Average number of shells per batch           ...    24.80 (60.49%)
Average number of basis functions per batch  ...    74.40 (52.03%)
Average number of large shells per batch     ...    16.80 (67.74%)
Average number of large basis fcns per batch ...    47.20 (63.44%)
Maximum spatial batch extension              ...  17.39, 26.34, 14.81 au
Average spatial batch extension              ...   0.86,  1.19,  0.80 au

Time for grid setup =    0.019 sec

--------------
SCF ITERATIONS
--------------
ITER       Energy         Delta-E        Max-DP      RMS-DP      [F,P]     Damp
               ***  Starting incremental Fock matrix formation  ***
  0  -1906.6430354977   0.000000000000 0.00017454  0.00000435  0.0011585 0.7000
  1  -1906.6430357166  -0.000000218907 0.00014772  0.00000338  0.0008117 0.7000
                               ***Turning on DIIS***
  2  -1906.6430357679  -0.000000051216 0.00045098  0.00000830  0.0005680 0.0000
  3  -1906.6430356967   0.000000071113 0.00149572  0.00001171  0.0004057 0.0000
  4  -1906.6430307338   0.000004962940 0.00034294  0.00000301  0.0020846 0.0000
  5  -1906.6430342559  -0.000003522090 0.00028738  0.00000231  0.0012097 0.0000
  6  -1906.6430358617  -0.000001605798 0.00098539  0.00000755  0.0007543 0.0000
  7  -1906.6430362961  -0.000000434396 0.00035798  0.00000288  0.0004180 0.0000
  8  -1906.6430360099   0.000000286228 0.00004980  0.00000061  0.0000356 0.0000
  9  -1906.6430361492  -0.000000139331 0.00001557  0.00000023  0.0000304 0.0000
 10  -1906.6430360773   0.000000071900 0.00000775  0.00000008  0.0000116 0.0000
 11  -1906.6430360538   0.000000023495 0.00000242  0.00000003  0.0000027 0.0000
 12  -1906.6430360967  -0.000000042940 0.00000472  0.00000007  0.0000010 0.0000
                            ***DIIS convergence achieved***

               *****************************************************
               *                     SUCCESS                       *
               *           SCF CONVERGED AFTER  13 CYCLES          *
               *****************************************************

Setting up the final grid:

General Integration Accuracy     IntAcc      ...  4.670
Radial Grid Type                 RadialGrid  ... Gauss-Chebyshev
Angular Grid (max. acc.)         AngularGrid ... Lebedev-302
Angular grid pruning method      GridPruning ... 3 (G Style)
Weight generation scheme         WeightScheme... Becke
Basis function cutoff            BFCut       ...    1.0000e-11
Integration weight cutoff        WCut        ...    1.0000e-14
Grids for H and He will be reduced by one unit

# of grid points (after initial pruning)     ...  16510 (   0.0 sec)
# of grid points (after weights+screening)   ...  16482 (   0.0 sec)
nearest neighbour list constructed           ...    0.0 sec
Grid point re-assignment to atoms done       ...    0.0 sec
Grid point division into batches done        ...    0.1 sec
Reduced shell lists constructed in    0.1 sec

Total number of grid points                  ...    16482
Total number of batches                      ...      258
Average number of points per batch           ...       63
Average number of grid points per atom       ...     8241
Average number of shells per batch           ...    18.08 (44.11%)
Average number of basis functions per batch  ...    44.42 (31.06%)
Average number of large shells per batch     ...    10.50 (58.06%)
Average number of large basis fcns per batch ...    25.00 (56.29%)
Maximum spatial batch extension              ...  23.02, 23.02, 16.62 au
Average spatial batch extension              ...   0.79,  0.78,  0.60 au

Final grid set up in    0.1 sec
Final integration                            ... done (   0.1 sec)
Change in XC energy                          ...     0.000365589
Integrated number of electrons               ...    44.000016288
Previous integrated no of electrons          ...    43.999868745
Total Energy       :        -1906.64267050 Eh          -51882.38471 eV
  Last Energy change         ...    5.3153e-09  Tolerance :   1.0000e-08
  Last MAX-Density change    ...    2.9978e-06  Tolerance :   1.0000e-07
             **** THE GBW FILE WAS UPDATED (48_NiS.gbw) ****
             **** DENSITY FILE WAS UPDATED (48_NiS.scfp) ****
             **** ENERGY FILE WAS UPDATED (48_NiS.en.tmp) ****
----------------------
UHF SPIN CONTAMINATION
----------------------

Warning: in a DFT calculation there is little theoretical justification to 
         calculate <S**2> as in Hartree-Fock theory. We will do it anyways
         but you should keep in mind that the values have only limited relevance

Expectation value of <S**2>     :     2.007514
Ideal value S*(S+1) for S=1.0   :     2.000000
Deviation                       :     0.007514

             **** THE GBW FILE WAS UPDATED (48_NiS.gbw) ****
             **** DENSITY FILE WAS UPDATED (48_NiS.scfp) ****
Total SCF time: 0 days 0 hours 0 min 2 sec 


-------------------------------------------------------------------------------
                          DFT DISPERSION CORRECTION                            
                                                                               
                              DFTD3 V3.1  Rev 1                                
                          USING Becke-Johnson damping                          
-------------------------------------------------------------------------------
-------------------------   ----------------
Dispersion correction           -0.001733811
-------------------------   ----------------


-------------------------   --------------------
FINAL SINGLE POINT ENERGY     -1906.644404313090
-------------------------   --------------------



           ************************************************************
           *        Program running with 24 parallel MPI-processes    *
           *              working on a common directory               *
           ************************************************************
------------------------------------------------------------------------------
                         ORCA SCF GRADIENT CALCULATION
------------------------------------------------------------------------------

Gradient of the Kohn-Sham DFT energy:
Kohn-Sham wavefunction type      ... UKS
Hartree-Fock exchange scaling    ...    0.000
Number of operators              ...    2
Number of atoms                  ...    2
Basis set dimensions             ...  143
Integral neglect threshold       ... 2.5e-11
Integral primitive cutoff        ... 2.5e-12

Nuclear repulsion gradient       ... done
One Electron Gradient            ... done
Pre-screening matrix             ... done
RI-J gradient                    ... done
Exchange-correlation gradient    ... done
Dispersion correction            ... done

------------------
CARTESIAN GRADIENT
------------------

   1   Ni  :   -0.000000011   -0.000000009   -0.009793395
   2   S   :    0.000000008    0.000000008    0.009711780

Difference to translation invariance:
           :   -0.0000000023   -0.0000000019   -0.0000816154

Norm of the cartesian gradient     ...    0.0137923620
RMS gradient                       ...    0.0056307082
MAX gradient                       ...    0.0097933950

-------
TIMINGS
-------

Total SCF gradient time            ...        4.562 sec

One electron gradient       ....       0.052 sec  (  1.1%)
Prescreening matrices       ....       3.659 sec  ( 80.2%)
RI-J Coulomb gradient       ....       0.260 sec  (  5.7%)
XC gradient                 ....       0.051 sec  (  1.1%)
------------------------------------------------------------------------------
                         ORCA GEOMETRY RELAXATION STEP
------------------------------------------------------------------------------

Reading the OPT-File                    .... done
Getting information on internals        .... done
Copying old internal coords+grads       .... done
Making the new internal coordinates     .... (new redundants).... done
Validating the new internal coordinates .... (new redundants).... done
Calculating the B-matrix                .... done
Calculating the G,G- and P matrices     .... done
Transforming gradient to internals      .... done
Projecting the internal gradient        .... done
Number of atoms                         ....   2
Number of internal coordinates          ....   1
Current Energy                          .... -1906.644404313 Eh
Current gradient norm                   ....     0.013792362 Eh/bohr
Maximum allowed component of the step   ....  0.300
Current trust radius                    ....  0.300
Updating the Hessian (BFGS)             .... done
Forming the augmented Hessian           .... done
Diagonalizing the augmented Hessian     .... done
Last element of RFO vector              ....  0.998547035
Lowest eigenvalues of augmented Hessian:
 -0.000526303
Length of the computed step             ....  0.053965511
The final length of the internal step   ....  0.053965511
Converting the step to cartesian space:
 Initial RMS(Int)=    0.0539655112
Transforming coordinates:
 Iter   0:  RMS(Cart)=    0.0155785012 RMS(Int)=    0.0539655112
 Iter   1:  RMS(Cart)=    0.0000000000 RMS(Int)=    0.0000000000
done
Storing new coordinates                 .... done

                                .--------------------.
          ----------------------|Geometry convergence|-------------------------
          Item                value                   Tolerance       Converged
          ---------------------------------------------------------------------
          Energy change      -0.0000603220            0.0000050000      NO
          RMS gradient        0.0097525873            0.0001000000      NO
          MAX gradient        0.0097525873            0.0003000000      NO
          RMS step            0.0539655112            0.0020000000      NO
          MAX step            0.0539655112            0.0040000000      NO
          ........................................................
          Max(Bonds)      0.0286      Max(Angles)    0.00
          Max(Dihed)        0.00      Max(Improp)    0.00
          ---------------------------------------------------------------------

The optimization has not yet converged - more geometry cycles are needed


    ---------------------------------------------------------------------------
                         Redundant Internal Coordinates
                            (Angstroem and degrees)

        Definition                    Value    dE/dq     Step     New-Value
    ----------------------------------------------------------------------------
     1. B(S   1,Ni  0)                1.9968  0.009753 -0.0286    1.9683   
    ----------------------------------------------------------------------------

         *************************************************************
         *                GEOMETRY OPTIMIZATION CYCLE   3            *
         *************************************************************
---------------------------------
CARTESIAN COORDINATES (ANGSTROEM)
---------------------------------
  Ni     0.000000    0.000000    0.015859
  S      0.000000    0.000000    1.984141

----------------------------
CARTESIAN COORDINATES (A.U.)
----------------------------
  NO LB      ZA    FRAG     MASS         X           Y           Z
   0 Ni   28.0000    0    58.700    0.000000    0.000000    0.029969
   1 S    16.0000    0    32.060    0.000000    0.000000    3.749483

--------------------------------
INTERNAL COORDINATES (ANGSTROEM)
--------------------------------
 Ni     0   0   0     0.000000000000     0.00000000     0.00000000
 S      1   0   0     1.968282226007     0.00000000     0.00000000

---------------------------
INTERNAL COORDINATES (A.U.)
---------------------------
 Ni     0   0   0     0.000000000000     0.00000000     0.00000000
 S      1   0   0     3.719514361419     0.00000000     0.00000000



           ************************************************************
           *        Program running with 24 parallel MPI-processes    *
           *              working on a common directory               *
           ************************************************************
 One Electron integrals                  ... done
 Pre-screening matrix                    ... done


           ************************************************************
           *        Program running with 24 parallel MPI-processes    *
           *              working on a common directory               *
           ************************************************************

Diagonalization of the overlap matrix:
Smallest eigenvalue                        ... 1.250e-04
Time for diagonalization                   ...    0.006 sec
Threshold for overlap eigenvalues          ... 1.000e-08
Number of eigenvalues below threshold      ... 0
Time for construction of square roots      ...    0.003 sec
Total time needed                          ...    0.008 sec

-------------------
DFT GRID GENERATION
-------------------

General Integration Accuracy     IntAcc      ...  4.340
Radial Grid Type                 RadialGrid  ... Gauss-Chebyshev
Angular Grid (max. acc.)         AngularGrid ... Lebedev-110
Angular grid pruning method      GridPruning ... 3 (G Style)
Weight generation scheme         WeightScheme... Becke
Basis function cutoff            BFCut       ...    1.0000e-11
Integration weight cutoff        WCut        ...    1.0000e-14
Grids for H and He will be reduced by one unit

# of grid points (after initial pruning)     ...   4718 (   0.0 sec)
# of grid points (after weights+screening)   ...   4692 (   0.0 sec)
nearest neighbour list constructed           ...    0.0 sec
Grid point re-assignment to atoms done       ...    0.0 sec
Grid point division into batches done        ...    0.0 sec
Reduced shell lists constructed in    0.0 sec

Total number of grid points                  ...     4692
Total number of batches                      ...       74
Average number of points per batch           ...       63
Average number of grid points per atom       ...     2346
Average number of shells per batch           ...    24.80 (60.49%)
Average number of basis functions per batch  ...    74.40 (52.03%)
Average number of large shells per batch     ...    16.80 (67.74%)
Average number of large basis fcns per batch ...    47.20 (63.44%)
Maximum spatial batch extension              ...  17.39, 26.34, 14.81 au
Average spatial batch extension              ...   0.86,  1.19,  0.80 au

Time for grid setup =    0.020 sec

--------------
SCF ITERATIONS
--------------
ITER       Energy         Delta-E        Max-DP      RMS-DP      [F,P]     Damp
               ***  Starting incremental Fock matrix formation  ***
  0  -1906.6432303485   0.000000000000 0.00169642  0.00004056  0.0105119 0.7000
  1  -1906.6432595829  -0.000029234451 0.00142012  0.00003160  0.0073647 0.7000
                               ***Turning on DIIS***
  2  -1906.6432795243  -0.000019941369 0.00368012  0.00007581  0.0051535 0.0000
  3  -1906.6433225647  -0.000043040424 0.00148646  0.00001673  0.0016493 0.0000
  4  -1906.6433148452   0.000007719499 0.00052938  0.00000851  0.0037773 0.0000
  5  -1906.6433252653  -0.000010420079 0.00127687  0.00001240  0.0005169 0.0000
  6  -1906.6433243752   0.000000890082 0.00026167  0.00000244  0.0013867 0.0000
  7  -1906.6433257490  -0.000001373759 0.00123406  0.00000960  0.0009074 0.0000
  8  -1906.6433263398  -0.000000590834 0.00046725  0.00000424  0.0006178 0.0000
  9  -1906.6433278819  -0.000001542116 0.00012983  0.00000152  0.0000829 0.0000
 10  -1906.6433275158   0.000000366106 0.00010399  0.00000099  0.0001299 0.0000
 11  -1906.6433278032  -0.000000287372 0.00001749  0.00000022  0.0000222 0.0000
 12  -1906.6433278981  -0.000000094932 0.00000646  0.00000008  0.0000049 0.0000
 13  -1906.6433279287  -0.000000030545 0.00000181  0.00000003  0.0000014 0.0000
                            ***DIIS convergence achieved***

               *****************************************************
               *                     SUCCESS                       *
               *           SCF CONVERGED AFTER  14 CYCLES          *
               *****************************************************

Setting up the final grid:

General Integration Accuracy     IntAcc      ...  4.670
Radial Grid Type                 RadialGrid  ... Gauss-Chebyshev
Angular Grid (max. acc.)         AngularGrid ... Lebedev-302
Angular grid pruning method      GridPruning ... 3 (G Style)
Weight generation scheme         WeightScheme... Becke
Basis function cutoff            BFCut       ...    1.0000e-11
Integration weight cutoff        WCut        ...    1.0000e-14
Grids for H and He will be reduced by one unit

# of grid points (after initial pruning)     ...  16510 (   0.0 sec)
# of grid points (after weights+screening)   ...  16482 (   0.0 sec)
nearest neighbour list constructed           ...    0.0 sec
Grid point re-assignment to atoms done       ...    0.0 sec
Grid point division into batches done        ...    0.1 sec
Reduced shell lists constructed in    0.1 sec

Total number of grid points                  ...    16482
Total number of batches                      ...      258
Average number of points per batch           ...       63
Average number of grid points per atom       ...     8241
Average number of shells per batch           ...    18.08 (44.11%)
Average number of basis functions per batch  ...    44.42 (31.06%)
Average number of large shells per batch     ...    10.50 (58.06%)
Average number of large basis fcns per batch ...    25.00 (56.29%)
Maximum spatial batch extension              ...  23.02, 23.02, 16.62 au
Average spatial batch extension              ...   0.79,  0.78,  0.60 au

Final grid set up in    0.1 sec
Final integration                            ... done (   0.1 sec)
Change in XC energy                          ...     0.000409440
Integrated number of electrons               ...    44.000009726
Previous integrated no of electrons          ...    43.999919291
Total Energy       :        -1906.64291844 Eh          -51882.39146 eV
  Last Energy change         ...    5.0498e-08  Tolerance :   1.0000e-08
  Last MAX-Density change    ...    5.0002e-06  Tolerance :   1.0000e-07
             **** THE GBW FILE WAS UPDATED (48_NiS.gbw) ****
             **** DENSITY FILE WAS UPDATED (48_NiS.scfp) ****
             **** ENERGY FILE WAS UPDATED (48_NiS.en.tmp) ****
----------------------
UHF SPIN CONTAMINATION
----------------------

Warning: in a DFT calculation there is little theoretical justification to 
         calculate <S**2> as in Hartree-Fock theory. We will do it anyways
         but you should keep in mind that the values have only limited relevance

Expectation value of <S**2>     :     2.007451
Ideal value S*(S+1) for S=1.0   :     2.000000
Deviation                       :     0.007451

             **** THE GBW FILE WAS UPDATED (48_NiS.gbw) ****
             **** DENSITY FILE WAS UPDATED (48_NiS.scfp) ****
Total SCF time: 0 days 0 hours 0 min 3 sec 


-------------------------------------------------------------------------------
                          DFT DISPERSION CORRECTION                            
                                                                               
                              DFTD3 V3.1  Rev 1                                
                          USING Becke-Johnson damping                          
-------------------------------------------------------------------------------
-------------------------   ----------------
Dispersion correction           -0.001732017
-------------------------   ----------------


-------------------------   --------------------
FINAL SINGLE POINT ENERGY     -1906.644650455042
-------------------------   --------------------



           ************************************************************
           *        Program running with 24 parallel MPI-processes    *
           *              working on a common directory               *
           ************************************************************
------------------------------------------------------------------------------
                         ORCA SCF GRADIENT CALCULATION
------------------------------------------------------------------------------

Gradient of the Kohn-Sham DFT energy:
Kohn-Sham wavefunction type      ... UKS
Hartree-Fock exchange scaling    ...    0.000
Number of operators              ...    2
Number of atoms                  ...    2
Basis set dimensions             ...  143
Integral neglect threshold       ... 2.5e-11
Integral primitive cutoff        ... 2.5e-12

Nuclear repulsion gradient       ... done
One Electron Gradient            ... done
Pre-screening matrix             ... done
RI-J gradient                    ... done
Exchange-correlation gradient    ... done
Dispersion correction            ... done

[...]
 113   0.0000       4.971524       135.2820 
 114   0.0000       4.971524       135.2820 
 115   0.0000       4.982712       135.5865 
 116   0.0000       4.985647       135.6664 
 117   0.0000       4.994153       135.8978 
 118   0.0000       4.996949       135.9739 
 119   0.0000       5.105048       138.9154 
 120   0.0000       5.105048       138.9154 
 121   0.0000       5.413755       147.3158 
 122   0.0000       5.542517       150.8196 
 123   0.0000       5.543482       150.8458 
 124   0.0000       5.774409       157.1297 
 125   0.0000       5.774409       157.1297 
 126   0.0000       6.869897       186.9394 
 127   0.0000      12.283792       334.2590 
 128   0.0000      12.283844       334.2604 
 129   0.0000      12.291073       334.4571 
 130   0.0000      12.291073       334.4571 
 131   0.0000      12.366837       336.5187 
 132   0.0000      12.366837       336.5187 
 133   0.0000      12.390879       337.1730 
 134   0.0000      13.910809       378.5324 
 135   0.0000      13.910809       378.5324 
 136   0.0000      13.912832       378.5874 
 137   0.0000      13.912957       378.5908 
 138   0.0000      13.949184       379.5766 
 139   0.0000      13.950693       379.6177 
 140   0.0000      13.990652       380.7050 
 141   0.0000      13.990652       380.7050 
 142   0.0000      14.074041       382.9741 

                 SPIN DOWN ORBITALS
  NO   OCC          E(Eh)            E(eV) 
   0   1.0000    -298.960205     -8135.1208 
   1   1.0000     -88.378760     -2404.9083 
   2   1.0000     -35.350887      -961.9465 
   3   1.0000     -30.796075      -838.0038 
   4   1.0000     -30.786248      -837.7364 
   5   1.0000     -30.786248      -837.7364 
   6   1.0000      -7.731925      -210.3964 
   7   1.0000      -5.709742      -155.3700 
   8   1.0000      -5.708437      -155.3345 
   9   1.0000      -5.708437      -155.3345 
  10   1.0000      -3.859278      -105.0163 
  11   1.0000      -2.484361       -67.6029 
  12   1.0000      -2.458863       -66.9091 
  13   1.0000      -2.458863       -66.9091 
  14   1.0000      -0.593058       -16.1379 
  15   1.0000      -0.293947        -7.9987 
  16   1.0000      -0.240592        -6.5468 
  17   1.0000      -0.240592        -6.5468 
  18   1.0000      -0.207788        -5.6542 
  19   1.0000      -0.197701        -5.3797 
  20   1.0000      -0.197613        -5.3773 
  21   0.0000      -0.157725        -4.2919 
  22   0.0000      -0.157725        -4.2919 
  23   0.0000      -0.107154        -2.9158 
  24   0.0000      -0.009371        -0.2550 
  25   0.0000      -0.009371        -0.2550 
  26   0.0000       0.010589         0.2881 
  27   0.0000       0.012092         0.3290 
  28   0.0000       0.037493         1.0202 
  29   0.0000       0.037493         1.0202 
  30   0.0000       0.059883         1.6295 
  31   0.0000       0.074646         2.0312 
  32   0.0000       0.075020         2.0414 
  33   0.0000       0.082497         2.2449 
  34   0.0000       0.083862         2.2820 
  35   0.0000       0.083862         2.2820 
  36   0.0000       0.112677         3.0661 
  37   0.0000       0.112677         3.0661 
  38   0.0000       0.115261         3.1364 
  39   0.0000       0.135139         3.6773 
  40   0.0000       0.194035         5.2800 
  41   0.0000       0.194035         5.2800 
  42   0.0000       0.212917         5.7938 
  43   0.0000       0.212936         5.7943 
  44   0.0000       0.222211         6.0467 
  45   0.0000       0.243178         6.6172 
  46   0.0000       0.291170         7.9232 
  47   0.0000       0.291170         7.9232 
  48   0.0000       0.331327         9.0159 
  49   0.0000       0.351994         9.5783 
  50   0.0000       0.353021         9.6062 
  51   0.0000       0.406444        11.0599 
  52   0.0000       0.406444        11.0599 
  53   0.0000       0.494929        13.4677 
  54   0.0000       0.494929        13.4677 
  55   0.0000       0.525404        14.2970 
  56   0.0000       0.551133        14.9971 
  57   0.0000       0.591362        16.0918 
  58   0.0000       0.591434        16.0938 
  59   0.0000       0.624150        16.9840 
  60   0.0000       0.624150        16.9840 
  61   0.0000       0.650888        17.7116 
  62   0.0000       0.701153        19.0793 
  63   0.0000       0.710926        19.3453 
  64   0.0000       0.710926        19.3453 
  65   0.0000       0.752112        20.4660 
  66   0.0000       0.752545        20.4778 
  67   0.0000       0.861231        23.4353 
  68   0.0000       0.861231        23.4353 
  69   0.0000       0.887557        24.1517 
  70   0.0000       0.973352        26.4863 
  71   0.0000       0.973352        26.4863 
  72   0.0000       1.157983        31.5103 
  73   0.0000       1.256656        34.1954 
  74   0.0000       1.256656        34.1954 
  75   0.0000       1.381833        37.6016 
  76   0.0000       1.383017        37.6338 
  77   0.0000       1.398427        38.0531 
  78   0.0000       1.419603        38.6294 
  79   0.0000       1.419910        38.6377 
  80   0.0000       1.435923        39.0734 
  81   0.0000       1.435923        39.0734 
  82   0.0000       1.476291        40.1719 
  83   0.0000       1.653212        44.9862 
  84   0.0000       1.653212        44.9862 
  85   0.0000       1.782225        48.4968 
  86   0.0000       1.782240        48.4972 
  87   0.0000       1.872612        50.9564 
  88   0.0000       1.872612        50.9564 
  89   0.0000       1.955614        53.2150 
  90   0.0000       2.069849        56.3234 
  91   0.0000       2.078175        56.5500 
  92   0.0000       2.078175        56.5500 
  93   0.0000       2.098650        57.1072 
  94   0.0000       2.098650        57.1072 
  95   0.0000       2.111836        57.4660 
  96   0.0000       2.113207        57.5033 
  97   0.0000       2.210561        60.1524 
  98   0.0000       2.397839        65.2485 
  99   0.0000       2.397839        65.2485 
 100   0.0000       3.077282        83.7371 
 101   0.0000       3.598096        97.9092 
 102   0.0000       3.815057       103.8130 
 103   0.0000       3.815057       103.8130 
 104   0.0000       3.888503       105.8116 
 105   0.0000       3.888503       105.8116 
 106   0.0000       3.892933       105.9321 
 107   0.0000       3.894574       105.9767 
 108   0.0000       4.008119       109.0665 
 109   0.0000       4.008119       109.0665 
 110   0.0000       4.039379       109.9171 
 111   0.0000       4.420268       120.2816 
 112   0.0000       4.844827       131.8344 
 113   0.0000       5.001082       136.0864 
 114   0.0000       5.001760       136.1048 
 115   0.0000       5.001760       136.1048 
 116   0.0000       5.003861       136.1620 
 117   0.0000       5.013563       136.4260 
 118   0.0000       5.016055       136.4938 
 119   0.0000       5.129329       139.5762 
 120   0.0000       5.129329       139.5762 
 121   0.0000       5.429419       147.7420 
 122   0.0000       5.566831       151.4812 
 123   0.0000       5.567559       151.5010 
 124   0.0000       5.827829       158.5833 
 125   0.0000       5.827829       158.5833 
 126   0.0000       6.900406       187.7696 
 127   0.0000      12.322305       335.3070 
 128   0.0000      12.322305       335.3070 
 129   0.0000      12.366881       336.5199 
 130   0.0000      12.366896       336.5204 
 131   0.0000      12.427644       338.1734 
 132   0.0000      12.427644       338.1734 
 133   0.0000      12.432612       338.3086 
 134   0.0000      13.967189       380.0665 
 135   0.0000      13.967189       380.0665 
 136   0.0000      13.968926       380.1138 
 137   0.0000      13.969696       380.1348 
 138   0.0000      13.977435       380.3454 
 139   0.0000      13.979076       380.3900 
 140   0.0000      14.037953       381.9921 
 141   0.0000      14.037953       381.9921 
 142   0.0000      14.117116       384.1463 

                    ********************************
                    * MULLIKEN POPULATION ANALYSIS *
                    ********************************

--------------------------------------------
MULLIKEN ATOMIC CHARGES AND SPIN POPULATIONS
--------------------------------------------
   0 Ni:    0.233728    1.038595
   1 S :   -0.233728    0.961405
Sum of atomic charges         :   -0.0000000
Sum of atomic spin populations:    2.0000000

-----------------------------------------------------
MULLIKEN REDUCED ORBITAL CHARGES AND SPIN POPULATIONS
-----------------------------------------------------
CHARGE
  0 Nis       :     6.731246  s :     6.731246
      pz      :     4.077097  p :    12.187825
      px      :     4.055364
      py      :     4.055364
      dz2     :     1.858394  d :     8.838292
      dxz     :     1.493479
      dyz     :     1.493479
      dx2y2   :     1.996468
      dxy     :     1.996471
      f0      :     0.002552  f :     0.008523
      f+1     :     0.002945
      f-1     :     0.002945
      f+2     :     0.000041
      f-2     :     0.000039
      f+3     :     0.000000
      f-3     :     0.000000
      g0      :     0.000159  g :     0.000386
      g+1     :     0.000098
      g-1     :     0.000098
      g+2     :     0.000015
      g-2     :     0.000016
      g+3     :     0.000000
      g-3     :     0.000000
      g+4     :     0.000000
      g-4     :     0.000000
  1 S s       :     5.956436  s :     5.956436
      pz      :     3.370138  p :    10.227595
      px      :     3.428729
      py      :     3.428729
      dz2     :     0.003774  d :     0.041997
      dxz     :     0.016806
      dyz     :     0.016806
      dx2y2   :     0.002312
      dxy     :     0.002300
      f0      :     0.000203  f :     0.007700
      f+1     :     0.002579
      f-1     :     0.002579
      f+2     :     0.001164
      f-2     :     0.001174
      f+3     :     0.000000
      f-3     :     0.000000

SPIN
  0 Nis       :     0.030366  s :     0.030366
      pz      :     0.002522  p :     0.035666
      px      :     0.016572
      py      :     0.016572
      dz2     :     0.006576  d :     0.970768
      dxz     :     0.482061
      dyz     :     0.482061
      dx2y2   :     0.000037
      dxy     :     0.000032
      f0      :     0.000363  f :     0.001817
      f+1     :     0.000706
      f-1     :     0.000706
      f+2     :     0.000021
      f-2     :     0.000021
      f+3     :     0.000000
      f-3     :     0.000000
      g0      :    -0.000030  g :    -0.000023
      g+1     :    -0.000011
      g-1     :    -0.000011
      g+2     :     0.000014
      g-2     :     0.000015
      g+3     :     0.000000
      g-3     :     0.000000
      g+4     :     0.000000
      g-4     :    -0.000000
  1 S s       :    -0.013138  s :    -0.013138
      pz      :    -0.025687  p :     0.982279
      px      :     0.503983
      py      :     0.503983
      dz2     :    -0.001209  d :    -0.005725
      dxz     :    -0.002196
      dyz     :    -0.002196
      dx2y2   :    -0.000063
      dxy     :    -0.000061
      f0      :     0.000236  f :    -0.002011
      f+1     :    -0.001115
      f-1     :    -0.001115
      f+2     :    -0.000009
      f-2     :    -0.000007
      f+3     :     0.000000
      f-3     :     0.000000


                     *******************************
                     * LOEWDIN POPULATION ANALYSIS *
                     *******************************

-------------------------------------------
LOEWDIN ATOMIC CHARGES AND SPIN POPULATIONS
-------------------------------------------
   0 Ni:   -0.026470    1.134667
   1 S :    0.026470    0.865333

----------------------------------------------------
LOEWDIN REDUCED ORBITAL CHARGES AND SPIN POPULATIONS
----------------------------------------------------
CHARGE
  0 Nis       :     6.537913  s :     6.537913
      pz      :     4.241953  p :    12.404561
      px      :     4.081304
      py      :     4.081304
      dz2     :     1.979608  d :     9.024162
      dxz     :     1.540623
      dyz     :     1.540623
      dx2y2   :     1.981645
      dxy     :     1.981664
      f0      :     0.025489  f :     0.058847
      f+1     :     0.016470
      f-1     :     0.016470
      f+2     :     0.000209
      f-2     :     0.000210
      f+3     :     0.000000
      f-3     :     0.000000
      g0      :     0.000483  g :     0.000987
      g+1     :     0.000241
      g-1     :     0.000241
      g+2     :     0.000010
      g-2     :     0.000011
      g+3     :     0.000000
      g-3     :     0.000000
      g+4     :     0.000000
      g-4     :     0.000000
  1 S s       :     5.503394  s :     5.503394
      pz      :     3.499988  p :    10.057491
      px      :     3.278751
      py      :     3.278751
      dz2     :     0.126273  d :     0.229065
      dxz     :     0.044713
      dyz     :     0.044713
      dx2y2   :     0.006691
      dxy     :     0.006676
      f0      :     0.084899  f :     0.183579
      f+1     :     0.037898
      f-1     :     0.037898
      f+2     :     0.011444
      f-2     :     0.011439
      f+3     :     0.000000
      f-3     :     0.000000

SPIN
  0 Nis       :     0.008113  s :     0.008113
      pz      :    -0.007008  p :     0.114364
      px      :     0.060686
      py      :     0.060686
      dz2     :     0.003817  d :     0.996215
      dxz     :     0.495461
      dyz     :     0.495461
      dx2y2   :     0.000737
      dxy     :     0.000739
      f0      :     0.000363  f :     0.015859
      f+1     :     0.007663
      f-1     :     0.007663
      f+2     :     0.000085
      f-2     :     0.000085
      f+3     :     0.000000
      f-3     :     0.000000
      g0      :    -0.000037  g :     0.000117
      g+1     :     0.000067
      g-1     :     0.000067
      g+2     :     0.000010
      g-2     :     0.000010
      g+3     :     0.000000
      g-3     :     0.000000
      g+4     :     0.000000
      g-4     :    -0.000000
  1 S s       :     0.004975  s :     0.004975
      pz      :    -0.010736  p :     0.836316
      px      :     0.423526
      py      :     0.423526
      dz2     :     0.000694  d :     0.014301
      dxz     :     0.007171
      dyz     :     0.007171
      dx2y2   :    -0.000367
      dxy     :    -0.000368
      f0      :    -0.000180  f :     0.009741
      f+1     :     0.005426
      f-1     :     0.005426
      f+2     :    -0.000465
      f-2     :    -0.000466
      f+3     :     0.000000
      f-3     :     0.000000


                      *****************************
                      * MAYER POPULATION ANALYSIS *
                      *****************************

  NA   - Mulliken gross atomic population
  ZA   - Total nuclear charge
  QA   - Mulliken gross atomic charge
  VA   - Mayer's total valence
  BVA  - Mayer's bonded valence
  FA   - Mayer's free valence

  ATOM       NA         ZA         QA         VA         BVA        FA
  0 Ni    27.7663    28.0000     0.2337     2.8783     2.2964     0.5818
  1 S     16.2337    16.0000    -0.2337     2.8165     2.2964     0.5201

  Mayer bond orders larger than 0.100000
B(  0-Ni,  1-S ) :   2.2964 

-------
TIMINGS
-------

Total SCF time: 0 days 0 hours 0 min 2 sec 

Total time                  ....       2.038 sec
Sum of individual times     ....       1.861 sec  ( 91.3%)

Fock matrix formation       ....       1.639 sec  ( 80.4%)
  Split-RI-J                ....       1.175 sec  ( 71.7% of F)
  XC integration            ....       0.177 sec  ( 10.8% of F)
    Basis function eval.    ....       0.022 sec  ( 12.7% of XC)
    Density eval.           ....       0.028 sec  ( 15.8% of XC)
    XC-Functional eval.     ....       0.006 sec  (  3.4% of XC)
    XC-Potential eval.      ....       0.067 sec  ( 37.7% of XC)
Diagonalization             ....       0.046 sec  (  2.3%)
Density matrix formation    ....       0.006 sec  (  0.3%)
Population analysis         ....       0.007 sec  (  0.4%)
Initial guess               ....       0.015 sec  (  0.7%)
Orbital Transformation      ....       0.000 sec  (  0.0%)
Orbital Orthonormalization  ....       0.009 sec  (  0.4%)
DIIS solution               ....       0.013 sec  (  0.7%)
Grid generation             ....       0.135 sec  (  6.6%)


-------------------------------------------------------------------------------
                          DFT DISPERSION CORRECTION                            
                                                                               
                              DFTD3 V3.1  Rev 1                                
                          USING Becke-Johnson damping                          
-------------------------------------------------------------------------------
The TPSS functional is recognized
Active option DFTDOPT                   ...         4   

molecular C6(AA) [au] = 705.356849 


            DFT-D V3
 parameters
 s6 scaling factor         :     1.0000 
 a1 scaling factor         :     0.4535 
 s8 scaling factor         :     1.9435 
 a2 scaling factor         :     4.4752 
 ad hoc parameters k1-k3   :    16.0000     1.3333    -4.0000 

 Edisp/kcal,au: -1.086918875949  -0.001732115299 
 E6   /kcal   :  -0.373576545 
 E8   /kcal   :  -0.713342330 
 % E8         :  65.629767435 

-------------------------   ----------------
Dispersion correction           -0.001732115
-------------------------   ----------------


-------------------------   --------------------
FINAL SINGLE POINT ENERGY     -1906.644650482070
-------------------------   --------------------

                                *** OPTIMIZATION RUN DONE ***

                            ***************************************
                            *     ORCA property calculations      *
                            ***************************************

                                    ---------------------
                                    Active property flags
                                    ---------------------
   (+) Dipole Moment


------------------------------------------------------------------------------
                       ORCA ELECTRIC PROPERTIES CALCULATION
------------------------------------------------------------------------------

Dipole Moment Calculation                       ... on
Quadrupole Moment Calculation                   ... off
Polarizability Calculation                      ... off
GBWName                                         ... 48_NiS.gbw
Electron density file                           ... 48_NiS.scfp
The origin for moment calculation is the CENTER OF MASS  = ( 0.000000,  0.000000  1.343324)

-------------
DIPOLE MOMENT
-------------
                                X             Y             Z
Electronic contribution:      0.00000       0.00000      -3.20938
Nuclear contribution   :      0.00000       0.00000       1.70320
                        -----------------------------------------
Total Dipole Moment    :      0.00000       0.00000      -1.50618
                        -----------------------------------------
Magnitude (a.u.)       :      1.50618
Magnitude (Debye)      :      3.82840



--------------------
Rotational spectrum 
--------------------
 
Rotational constants in cm-1:     0.000000     0.209451     0.209451 
Rotational constants in MHz :     0.000000  6279.170942  6279.170942 

 Dipole components along the rotational axes: 
x,y,z [a.u.] :    -1.506178     0.000000     0.000000 
x,y,z [Debye]:    -3.828400     0.000000     0.000000 

 

Timings for individual modules:

Sum of individual times         ...       51.708 sec (=   0.862 min)
GTO integral calculation        ...       15.054 sec (=   0.251 min)  29.1 %
SCF iterations                  ...       16.756 sec (=   0.279 min)  32.4 %
SCF Gradient evaluation         ...       19.755 sec (=   0.329 min)  38.2 %
Geometry relaxation             ...        0.142 sec (=   0.002 min)   0.3 %
                             ****ORCA TERMINATED NORMALLY****
TOTAL RUN TIME: 0 days 0 hours 0 minutes 52 seconds 536 msec
