
                                 *****************
                                 * O   R   C   A *
                                 *****************

           --- An Ab Initio, DFT and Semiempirical electronic structure package ---

                  #######################################################
                  #                        -***-                        #
                  #          Department of theory and spectroscopy      #
                  #               Directorship: Frank Neese             #
                  #        Max Planck Institute fuer Kohlenforschung    #
                  #                Kaiser Wilhelm Platz 1               #
                  #                 D-45470 Muelheim/Ruhr               #
                  #                      Germany                        #
                  #                                                     #
                  #                  All rights reserved                #
                  #                        -***-                        #
                  #######################################################


                         Program Version 4.2.0 -  RELEASE  -


 With contributions from (in alphabetic order):
   Daniel Aravena         : Magnetic Suceptibility
   Michael Atanasov       : Ab Initio Ligand Field Theory (pilot matlab implementation)
   Alexander A. Auer      : GIAO ZORA, VPT2
   Ute Becker             : Parallelization
   Giovanni Bistoni       : ED, misc. LED, open-shell LED, HFLED
   Martin Brehm           : Molecular dynamics
   Dmytro Bykov           : SCF Hessian
   Vijay G. Chilkuri      : MRCI spin determinant printing, contributions to CSF-ICE
   Dipayan Datta          : RHF DLPNO-CCSD density
   Achintya Kumar Dutta   : EOM-CC, STEOM-CC
   Dmitry Ganyushin       : Spin-Orbit,Spin-Spin,Magnetic field MRCI
   Miquel Garcia          : C-PCM Hessian, Gaussian charge scheme
   Yang Guo               : DLPNO-NEVPT2, CIM, IAO-localization
   Andreas Hansen         : Spin unrestricted coupled pair/coupled cluster methods
   Benjamin Helmich-Paris : CASSCF linear response (MC-RPA)
   Lee Huntington         : MR-EOM, pCC
   Robert Izsak           : Overlap fitted RIJCOSX, COSX-SCS-MP3, EOM
   Christian Kollmar      : KDIIS, OOCD, Brueckner-CCSD(T), CCSD density
   Simone Kossmann        : Meta GGA functionals, TD-DFT gradient, OOMP2, MP2 Hessian
   Martin Krupicka        : AUTO-CI
   Lucas Lang             : DCDCAS
   Dagmar Lenk            : GEPOL surface, SMD
   Dimitrios Liakos       : Extrapolation schemes; Compound Job, initial MDCI parallelization
   Dimitrios Manganas     : Further ROCIS development; embedding schemes
   Dimitrios Pantazis     : SARC Basis sets
   Taras Petrenko         : DFT Hessian,TD-DFT gradient, ASA, ECA, R-Raman, ABS, FL, XAS/XES, NRVS
   Peter Pinski           : DLPNO-MP2, DLPNO-MP2 Gradient
   Christoph Reimann      : Effective Core Potentials
   Marius Retegan         : Local ZFS, SOC
   Christoph Riplinger    : Optimizer, TS searches, QM/MM, DLPNO-CCSD(T), (RO)-DLPNO pert. Triples
   Tobias Risthaus        : Range-separated hybrids, TD-DFT gradient, RPA, STAB
   Michael Roemelt        : Original ROCIS implementation
   Masaaki Saitow         : Open-shell DLPNO-CCSD energy and density
   Barbara Sandhoefer     : DKH picture change effects
   Avijit Sen             : IP-ROCIS
   Kantharuban Sivalingam : CASSCF convergence, NEVPT2, FIC-MRCI
   Bernardo de Souza      : ESD, SOC TD-DFT
   Georgi Stoychev        : AutoAux, RI-MP2 NMR
   Willem Van den Heuvel  : Paramagnetic NMR
   Boris Wezisla          : Elementary symmetry handling
   Frank Wennmohs         : Technical directorship


 We gratefully acknowledge several colleagues who have allowed us to
 interface, adapt or use parts of their codes:
   Stefan Grimme, W. Hujo, H. Kruse,             : VdW corrections, initial TS optimization,
                  C. Bannwarth                     DFT functionals, gCP, sTDA/sTD-DF
   Ed Valeev, F. Pavosevic, A. Kumar             : LibInt (2-el integral package), F12 methods
   Garnet Chan, S. Sharma, J. Yang, R. Olivares  : DMRG
   Ulf Ekstrom                                   : XCFun DFT Library
   Mihaly Kallay                                 : mrcc  (arbitrary order and MRCC methods)
   Andreas Klamt, Michael Diedenhofen            : otool_cosmo (COSMO solvation model)
   Jiri Pittner, Ondrej Demel                    : Mk-CCSD
   Frank Weinhold                                : gennbo (NPA and NBO analysis)
   Christopher J. Cramer and Donald G. Truhlar   : smd solvation model
   Lars Goerigk                                  : TD-DFT with DH, B97 family of functionals
   V. Asgeirsson, H. Jonsson                     : NEB implementation
   FAccTs GmbH                                   : IRC, NEB, NEB-TS, Multilevel, MM, QM/MM, CI optimization
   S Lehtola, MJT Oliveira, MAL Marques          : LibXC Library


 Your calculation uses the libint2 library for the computation of 2-el integrals
 For citations please refer to: http://libint.valeyev.net

 Your ORCA version has been built with support for libXC version: 4.2.3
 For citations please refer to: https://tddft.org/programs/libxc/

 This ORCA versions uses:
   CBLAS   interface :  Fast vector & matrix operations
   LAPACKE interface :  Fast linear algebra routines
   SCALAPACK package :  Parallel linear algebra routines


Your calculation utilizes the atom-pairwise dispersion correction
with the Becke-Johnson damping scheme (D3BJ)
Cite in your paper:
S.Grimme, S.Ehrlich, L.Goerigk, J Comput Chem, (2011), 32, 1456–1465 
S.Grimme, J.Antony, S.Ehrlich and H.Krieg, J.Chem.Phys., 132, (2010), 154104 
   

----- Orbital basis set information -----
Your calculation utilizes the basis: aug-cc-pVTZ 
    H, B-Ne : Obtained from the ccRepo (grant-hill.group.shef.ac.uk/ccrepo) Feb. 2017
              R. A. Kendall, T. H. Dunning, Jr., R. J. Harrison, J. Chem. Phys. 96, 6796 (1992)
         He : Obtained from the ccRepo (grant-hill.group.shef.ac.uk/ccrepo) Feb. 2017
              D. E. Woon, T. H. Dunning, Jr., J. Chem. Phys. 100, 2975 (1994)
  Li-Be, Na : Obtained from the ccRepo (grant-hill.group.shef.ac.uk/ccrepo) Feb. 2017
              B. P. Prascher, D. E. Woon, K. A. Peterson, T. H. Dunning, Jr., A. K. Wilson, Theor. Chem. Acc. 128, 69 (2011)
         Mg : Obtained from the Peterson Research Group Website (tyr0.chem.wsu.edu/~kipeters) Feb. 2017
              B. P. Prascher, D. E. Woon, K. A. Peterson, T. H. Dunning, Jr., A. K. Wilson, Theor. Chem. Acc. 128, 69 (2011)
      Al-Ar : Obtained from the ccRepo (grant-hill.group.shef.ac.uk/ccrepo) Feb. 2017
              D. E. Woon, T. H. Dunning, Jr., J. Chem. Phys. 98, 1358 (1993)
      Sc-Zn : Obtained from the ccRepo (grant-hill.group.shef.ac.uk/ccrepo) Feb. 2017
              N. B. Balabanov, K. A. Peterson, J. Chem. Phys. 123, 064107 (2005)
              N. B. Balabanov, K. A. Peterson, J. Chem. Phys. 125, 074110 (2006)
      Ga-Kr : Obtained from the ccRepo (grant-hill.group.shef.ac.uk/ccrepo) Feb. 2017
              A. K. Wilson, D. E. Woon, K. A. Peterson, T. H. Dunning, Jr., J. Chem. Phys. 110, 7667 (1999)
     Ag, Au : Obtained from the Peterson Research Group Website (tyr0.chem.wsu.edu/~kipeters) Feb. 2017
              K. A. Peterson, C. Puzzarini, Theor. Chem. Acc. 114, 283 (2005)

----- AuxJ basis set information -----
Your calculation utilizes the auxiliary basis: def2/J
   F. Weigend, Phys. Chem. Chem. Phys. 8, 1057 (2006).

================================================================================
                                        WARNINGS
                       Please study these warnings very carefully!
================================================================================


WARNING: Geometry Optimization
  ===> : Switching off AutoStart
         For restart on a previous wavefunction, please use MOREAD

INFO   : the flag for use of LIBINT has been found!

================================================================================
                                       INPUT FILE
================================================================================
NAME = 49_CuH.in
|  1> #
|  2> # 49_CuH tpss/aug-cc-pvtz
|  3> #
|  4> ! tpss d3bj aug-cc-pvtz def2/j opt xyzfile
|  5> 
|  6> *xyz 0 1
|  7> Cu 0.0 0.0 0.0
|  8> H 0.0 0.0 2.0
|  9> *
| 10> 
| 11> %pal
| 12> nprocs 24
| 13> end
| 14> 
| 15> 
| 16>                          ****END OF INPUT****
================================================================================

                       *****************************
                       * Geometry Optimization Run *
                       *****************************

Geometry optimization settings:
Update method            Update   .... BFGS
Choice of coordinates    CoordSys .... Z-matrix Internals
Initial Hessian          InHess   .... Almoef's Model

Convergence Tolerances:
Energy Change            TolE     ....  5.0000e-06 Eh
Max. Gradient            TolMAXG  ....  3.0000e-04 Eh/bohr
RMS Gradient             TolRMSG  ....  1.0000e-04 Eh/bohr
Max. Displacement        TolMAXD  ....  4.0000e-03 bohr
RMS Displacement         TolRMSD  ....  2.0000e-03 bohr
Strict Convergence                ....  False
------------------------------------------------------------------------------
                        ORCA OPTIMIZATION COORDINATE SETUP
------------------------------------------------------------------------------

The optimization will be done in new redundant internal coordinates
Making redundant internal coordinates   ...  (new redundants) done
Evaluating the initial hessian          ...  (Almloef) done
Evaluating the coordinates              ...  done
Calculating the B-matrix                .... done
Calculating the G-matrix                .... done
Diagonalizing the G-matrix              .... done
The first mode is                       ....    0
The number of degrees of freedom        ....    1

    -----------------------------------------------------------------
                    Redundant Internal Coordinates


    -----------------------------------------------------------------
         Definition                    Initial Value    Approx d2E/dq
    -----------------------------------------------------------------
      1. B(H   1,Cu  0)                  2.0000         0.128736   
    -----------------------------------------------------------------

Number of atoms                         .... 2
Number of degrees of freedom            .... 1

         *************************************************************
         *                GEOMETRY OPTIMIZATION CYCLE   1            *
         *************************************************************
---------------------------------
CARTESIAN COORDINATES (ANGSTROEM)
---------------------------------
  Cu     0.000000    0.000000    0.000000
  H      0.000000    0.000000    2.000000

----------------------------
CARTESIAN COORDINATES (A.U.)
----------------------------
  NO LB      ZA    FRAG     MASS         X           Y           Z
   0 Cu   29.0000    0    63.550    0.000000    0.000000    0.000000
   1 H     1.0000    0     1.008    0.000000    0.000000    3.779452

--------------------------------
INTERNAL COORDINATES (ANGSTROEM)
--------------------------------
 Cu     0   0   0     0.000000000000     0.00000000     0.00000000
 H      1   0   0     2.000000000000     0.00000000     0.00000000

---------------------------
INTERNAL COORDINATES (A.U.)
---------------------------
 Cu     0   0   0     0.000000000000     0.00000000     0.00000000
 H      1   0   0     3.779452267843     0.00000000     0.00000000

---------------------
BASIS SET INFORMATION
---------------------
There are 2 groups of distinct atoms

 Group   1 Type Cu  : 116s77p23d3f2g contracted to 8s7p5d3f2g pattern {19191919191911/151515151511/77711/111/11}
 Group   2 Type H   : 6s3p2d contracted to 4s3p2d pattern {3111/111/11}

Atom   0Cu   basis set group =>   1
Atom   1H    basis set group =>   2
---------------------------------
AUXILIARY/J BASIS SET INFORMATION
---------------------------------
There are 2 groups of distinct atoms

 Group   1 Type Cu  : 19s5p5d3f3g contracted to 8s5p4d3f3g pattern {121111111/11111/2111/111/111}
 Group   2 Type H   : 5s2p1d contracted to 3s1p1d pattern {311/2/1}

Atom   0Cu   basis set group =>   1
Atom   1H    basis set group =>   2


           ************************************************************
           *        Program running with 24 parallel MPI-processes    *
           *              working on a common directory               *
           ************************************************************
------------------------------------------------------------------------------
                           ORCA GTO INTEGRAL CALCULATION
                           -- RI-GTO INTEGRALS CHOSEN --
------------------------------------------------------------------------------

                         BASIS SET STATISTICS AND STARTUP INFO

Gaussian basis set:
 # of primitive gaussian shells          ...  232
 # of primitive gaussian functions       ...  526
 # of contracted shells                  ...   34
 # of contracted basis functions         ...  116
 Highest angular momentum                ...    4
 Maximum contraction depth               ...   19
Auxiliary gaussian basis set:
 # of primitive gaussian shells          ...   43
 # of primitive gaussian functions       ...  123
 # of contracted shells                  ...   28
 # of contracted aux-basis functions     ...  102
 Highest angular momentum                ...    4
 Maximum contraction depth               ...   12
Ratio of auxiliary to basis functions    ...  0.88
Integral package used                  ... LIBINT
 One Electron integrals                  ... done
 Ordering auxiliary basis shells         ... done
 Integral threshhold             Thresh  ...  2.500e-11
 Primitive cut-off               TCut    ...  2.500e-12
 Pre-screening matrix                    ... done
 Shell pair data                         ... 
 Ordering of the shell pairs             ... done (   0.000 sec) 595 of 595 pairs
 Determination of significant pairs      ... done (   0.000 sec)
 Creation of shell pair data             ... done (   0.001 sec)
 Storage of shell pair data              ... done (   0.023 sec)
 Shell pair data done in (   0.024 sec)
 Computing two index integrals           ... done
 Cholesky decomposition of the V-matrix  ... done


Timings:
 Total evaluation time                   ...   2.101 sec (  0.035 min)
 One electron matrix time                ...   0.038 sec (  0.001 min) =  1.8%
 Schwartz matrix evaluation time         ...   2.014 sec (  0.034 min) = 95.9%
 Two index repulsion integral time       ...   0.001 sec (  0.000 min) =  0.0%
 Cholesky decomposition of V             ...   0.001 sec (  0.000 min) =  0.0%
 Three index repulsion integral time     ...   0.000 sec (  0.000 min) =  0.0%



           ************************************************************
           *        Program running with 24 parallel MPI-processes    *
           *              working on a common directory               *
           ************************************************************
-------------------------------------------------------------------------------
                                 ORCA SCF
-------------------------------------------------------------------------------

------------
SCF SETTINGS
------------
Hamiltonian:
 Density Functional     Method          .... DFT(GTOs)
 Exchange Functional    Exchange        .... TPSS
 Correlation Functional Correlation     .... TPSS
 LDA part of GGA corr.  LDAOpt          .... PW91-LDA
 Gradients option       PostSCFGGA      .... off
   Density functional embedding theory  .... OFF
   NL short-range parameter             ....  5.000000
 RI-approximation to the Coulomb term is turned on
   Number of auxiliary basis functions  .... 102


General Settings:
 Integral files         IntName         .... 49_CuH
 Hartree-Fock type      HFTyp           .... RHF
 Total Charge           Charge          ....    0
 Multiplicity           Mult            ....    1
 Number of Electrons    NEL             ....   30
 Basis Dimension        Dim             ....  116
 Nuclear Repulsion      ENuc            ....      7.6730695204 Eh

Convergence Acceleration:
 DIIS                   CNVDIIS         .... on
   Start iteration      DIISMaxIt       ....    12
   Startup error        DIISStart       ....  0.200000
   # of expansion vecs  DIISMaxEq       ....     5
   Bias factor          DIISBfac        ....   1.050
   Max. coefficient     DIISMaxC        ....  10.000
 Newton-Raphson         CNVNR           .... off
 SOSCF                  CNVSOSCF        .... off
 Level Shifting         CNVShift        .... on
   Level shift para.    LevelShift      ....    0.2500
   Turn off err/grad.   ShiftErr        ....    0.0010
 Zerner damping         CNVZerner       .... off
 Static damping         CNVDamp         .... on
   Fraction old density DampFac         ....    0.7000
   Max. Damping (<1)    DampMax         ....    0.9800
   Min. Damping (>=0)   DampMin         ....    0.0000
   Turn off err/grad.   DampErr         ....    0.1000
 Fernandez-Rico         CNVRico         .... off

SCF Procedure:
 Maximum # iterations   MaxIter         ....   125
 SCF integral mode      SCFMode         .... Direct
   Integral package                     .... LIBINT
 Reset frequency        DirectResetFreq ....    20
 Integral Threshold     Thresh          ....  2.500e-11 Eh
 Primitive CutOff       TCut            ....  2.500e-12 Eh

Convergence Tolerance:
 Convergence Check Mode ConvCheckMode   .... Total+1el-Energy
 Convergence forced     ConvForced      .... 0
 Energy Change          TolE            ....  1.000e-08 Eh
 1-El. energy change                    ....  1.000e-05 Eh
 DIIS Error             TolErr          ....  5.000e-07


Diagonalization of the overlap matrix:
Smallest eigenvalue                        ... 4.383e-04
Time for diagonalization                   ...    0.003 sec
Threshold for overlap eigenvalues          ... 1.000e-08
Number of eigenvalues below threshold      ... 0
Time for construction of square roots      ...    0.002 sec
Total time needed                          ...    0.005 sec

-------------------
DFT GRID GENERATION
-------------------

General Integration Accuracy     IntAcc      ...  4.340
Radial Grid Type                 RadialGrid  ... Gauss-Chebyshev
Angular Grid (max. acc.)         AngularGrid ... Lebedev-110
Angular grid pruning method      GridPruning ... 3 (G Style)
Weight generation scheme         WeightScheme... Becke
Basis function cutoff            BFCut       ...    1.0000e-11
Integration weight cutoff        WCut        ...    1.0000e-14
Grids for H and He will be reduced by one unit

# of grid points (after initial pruning)     ...   3706 (   0.0 sec)
# of grid points (after weights+screening)   ...   3685 (   0.0 sec)
nearest neighbour list constructed           ...    0.0 sec
Grid point re-assignment to atoms done       ...    0.0 sec
Grid point division into batches done        ...    0.0 sec
Reduced shell lists constructed in    0.0 sec

Total number of grid points                  ...     3685
Total number of batches                      ...       59
Average number of points per batch           ...       62
Average number of grid points per atom       ...     1842
Average number of shells per batch           ...    20.25 (59.56%)
Average number of basis functions per batch  ...    56.25 (48.49%)
Average number of large shells per batch     ...    14.25 (70.37%)
Average number of large basis fcns per batch ...    38.25 (68.00%)
Maximum spatial batch extension              ...  18.14, 26.34, 14.81 au
Average spatial batch extension              ...   0.91,  1.20,  0.75 au

Time for grid setup =    0.024 sec

------------------------------
INITIAL GUESS: MODEL POTENTIAL
------------------------------
Loading Hartree-Fock densities                     ... done
Calculating cut-offs                               ... done
Setting up the integral package                    ... done
Initializing the effective Hamiltonian             ... done
Starting the Coulomb interaction                   ... done (   0.0 sec)
Reading the grid                                   ... done
Mapping shells                                     ... done
Starting the XC term evaluation                    ... done (   0.0 sec)
  promolecular density results
     # of electrons  =     29.999323840
     EX              =    -65.711844737
     EC              =     -1.359063209
     EX+EC           =    -67.070907947
Transforming the Hamiltonian                       ... done (   0.0 sec)
Diagonalizing the Hamiltonian                      ... done (   0.0 sec)
Back transforming the eigenvectors                 ... done (   0.0 sec)
Now organizing SCF variables                       ... done
                      ------------------
                      INITIAL GUESS DONE (   0.1 sec)
                      ------------------
--------------
SCF ITERATIONS
--------------
ITER       Energy         Delta-E        Max-DP      RMS-DP      [F,P]     Damp
               ***  Starting incremental Fock matrix formation  ***
  0  -1641.0758872021   0.000000000000 0.06550086  0.00173282  0.2659441 0.7000
  1  -1641.0982421061  -0.022354904002 0.03281208  0.00073689  0.0470054 0.7000
                               ***Turning on DIIS***
  2  -1641.1087096332  -0.010467527075 0.05759402  0.00140469  0.0468078 0.0000
  3  -1641.1262461217  -0.017536488515 0.00585257  0.00017983  0.1037949 0.7000
  4  -1641.1291342254  -0.002888103710 0.01864238  0.00052805  0.0766500 0.0000
  5  -1641.1342722128  -0.005137987361 0.00998116  0.00016920  0.0156002 0.0000
  6  -1641.1345817107  -0.000309497910 0.00464720  0.00007532  0.0052887 0.0000
  7  -1641.1346264799  -0.000044769259 0.00175036  0.00003382  0.0030169 0.0000
  8  -1641.1346379495  -0.000011469593 0.00097935  0.00001682  0.0020012 0.0000
  9  -1641.1346424468  -0.000004497271 0.00051000  0.00000964  0.0013096 0.0000
 10  -1641.1346441679  -0.000001721096 0.00139184  0.00002390  0.0009216 0.0000
 11  -1641.1346457742  -0.000001606275 0.00031141  0.00000485  0.0002156 0.0000
 12  -1641.1346458157  -0.000000041513 0.00008478  0.00000173  0.0001721 0.0000
 13  -1641.1346458566  -0.000000040949 0.00004022  0.00000075  0.0000783 0.0000
 14  -1641.1346457601   0.000000096585 0.00001032  0.00000019  0.0000181 0.0000
 15  -1641.1346457926  -0.000000032575 0.00000688  0.00000011  0.0000012 0.0000
                            ***DIIS convergence achieved***

               *****************************************************
               *                     SUCCESS                       *
               *           SCF CONVERGED AFTER  16 CYCLES          *
               *****************************************************

Setting up the final grid:

General Integration Accuracy     IntAcc      ...  4.670
Radial Grid Type                 RadialGrid  ... Gauss-Chebyshev
Angular Grid (max. acc.)         AngularGrid ... Lebedev-302
Angular grid pruning method      GridPruning ... 3 (G Style)
Weight generation scheme         WeightScheme... Becke
Basis function cutoff            BFCut       ...    1.0000e-11
Integration weight cutoff        WCut        ...    1.0000e-14
Grids for H and He will be reduced by one unit

# of grid points (after initial pruning)     ...  12950 (   0.0 sec)
# of grid points (after weights+screening)   ...  12922 (   0.0 sec)
nearest neighbour list constructed           ...    0.0 sec
Grid point re-assignment to atoms done       ...    0.0 sec
Grid point division into batches done        ...    0.1 sec
Reduced shell lists constructed in    0.1 sec

Total number of grid points                  ...    12922
Total number of batches                      ...      203
Average number of points per batch           ...       63
Average number of grid points per atom       ...     6461
Average number of shells per batch           ...    16.00 (47.06%)
Average number of basis functions per batch  ...    35.00 (30.17%)
Average number of large shells per batch     ...     8.70 (54.38%)
Average number of large basis fcns per batch ...    17.70 (50.57%)
Maximum spatial batch extension              ...  28.79, 26.18, 17.31 au
Average spatial batch extension              ...   0.94,  0.86,  0.68 au

Final grid set up in    0.1 sec
Final integration                            ... done (   0.0 sec)
Change in XC energy                          ...    -0.001090774
Integrated number of electrons               ...    30.000011999
Previous integrated no of electrons          ...    30.000221354

----------------
TOTAL SCF ENERGY
----------------

Total Energy       :        -1641.13573654 Eh          -44657.57374 eV

Components:
Nuclear Repulsion  :            7.67306952 Eh             208.79484 eV
Electronic Energy  :        -1648.80880606 Eh          -44866.36858 eV
One Electron Energy:        -2302.71993226 Eh          -62660.19494 eV
Two Electron Energy:          653.91112620 Eh           17793.82636 eV

Virial components:
Potential Energy   :        -3279.82428671 Eh          -89248.55615 eV
Kinetic Energy     :         1638.68855017 Eh           44590.98241 eV
Virial Ratio       :            2.00149338


DFT components:
N(Alpha)           :       15.000005999304 electrons
N(Beta)            :       15.000005999304 electrons
N(Total)           :       30.000011998608 electrons
E(X)               :      -66.111919036036 Eh       
E(C)               :       -1.373275457290 Eh       
E(XC)              :      -67.485194493325 Eh       
DFET-embed. en.    :        0.000000000000 Eh       

---------------
SCF CONVERGENCE
---------------

  Last Energy change         ...    2.2038e-08  Tolerance :   1.0000e-08
  Last MAX-Density change    ...    1.9735e-07  Tolerance :   1.0000e-07
  Last RMS-Density change    ...    4.4669e-09  Tolerance :   5.0000e-09
  Last DIIS Error            ...    2.7052e-07  Tolerance :   5.0000e-07

             **** THE GBW FILE WAS UPDATED (49_CuH.gbw) ****
             **** DENSITY FILE WAS UPDATED (49_CuH.scfp) ****
             **** ENERGY FILE WAS UPDATED (49_CuH.en.tmp) ****
             **** THE GBW FILE WAS UPDATED (49_CuH.gbw) ****
             **** DENSITY FILE WAS UPDATED (49_CuH.scfp) ****
----------------
ORBITAL ENERGIES
----------------

  NO   OCC          E(Eh)            E(eV) 
   0   2.0000    -322.081134     -8764.2732 
   1   2.0000     -38.364158     -1043.9418 
   2   2.0000     -33.581895      -913.8098 
   3   2.0000     -33.581895      -913.8098 
   4   2.0000     -33.580956      -913.7843 
   5   2.0000      -4.144942      -112.7896 
   6   2.0000      -2.657661       -72.3186 
   7   2.0000      -2.655718       -72.2658 
   8   2.0000      -2.655718       -72.2658 
   9   2.0000      -0.244396        -6.6504 
  10   2.0000      -0.208124        -5.6633 
  11   2.0000      -0.208124        -5.6633 
  12   2.0000      -0.206616        -5.6223 
  13   2.0000      -0.206590        -5.6216 
  14   2.0000      -0.197071        -5.3626 
  15   0.0000      -0.120131        -3.2689 
  16   0.0000      -0.023022        -0.6265 
  17   0.0000      -0.023022        -0.6265 
  18   0.0000       0.007493         0.2039 
  19   0.0000       0.017891         0.4868 
  20   0.0000       0.042023         1.1435 
  21   0.0000       0.042023         1.1435 
  22   0.0000       0.049839         1.3562 
  23   0.0000       0.089518         2.4359 
  24   0.0000       0.117435         3.1956 
  25   0.0000       0.117435         3.1956 
  26   0.0000       0.127622         3.4728 
  27   0.0000       0.129507         3.5241 
  28   0.0000       0.129966         3.5366 
  29   0.0000       0.187953         5.1145 
  30   0.0000       0.211913         5.7664 
  31   0.0000       0.215189         5.8556 
  32   0.0000       0.215189         5.8556 
  33   0.0000       0.254780         6.9329 
  34   0.0000       0.254780         6.9329 
  35   0.0000       0.338748         9.2178 
  36   0.0000       0.543806        14.7977 
  37   0.0000       0.550982        14.9930 
  38   0.0000       0.550982        14.9930 
  39   0.0000       0.564133        15.3508 
  40   0.0000       0.564687        15.3659 
  41   0.0000       0.639230        17.3943 
  42   0.0000       0.667026        18.1507 
  43   0.0000       0.718774        19.5588 
  44   0.0000       0.719882        19.5890 
  45   0.0000       0.890716        24.2376 
  46   0.0000       0.890716        24.2376 
  47   0.0000       0.935673        25.4610 
  48   0.0000       0.935673        25.4610 
  49   0.0000       0.951129        25.8815 
  50   0.0000       0.963484        26.2177 
  51   0.0000       0.963484        26.2177 
  52   0.0000       0.973532        26.4911 
  53   0.0000       1.314817        35.7780 
  54   0.0000       1.415067        38.5059 
  55   0.0000       1.415067        38.5059 
  56   0.0000       1.458830        39.6968 
  57   0.0000       1.461284        39.7635 
  58   0.0000       1.682968        45.7959 
  59   0.0000       1.682968        45.7959 
  60   0.0000       1.907740        51.9122 
  61   0.0000       2.102731        57.2182 
  62   0.0000       2.103386        57.2360 
  63   0.0000       2.120744        57.7084 
  64   0.0000       2.120744        57.7084 
  65   0.0000       2.194840        59.7246 
  66   0.0000       2.758887        75.0731 
  67   0.0000       3.716596       101.1337 
  68   0.0000       3.720949       101.2522 
  69   0.0000       3.736660       101.6797 
  70   0.0000       3.794156       103.2442 
  71   0.0000       3.794156       103.2442 
  72   0.0000       3.873019       105.3902 
  73   0.0000       4.007970       109.0624 
  74   0.0000       4.007970       109.0624 
  75   0.0000       4.190637       114.0330 
  76   0.0000       4.190637       114.0330 
  77   0.0000       4.288302       116.6906 
  78   0.0000       4.316862       117.4678 
  79   0.0000       4.316862       117.4678 
  80   0.0000       4.333583       117.9228 
  81   0.0000       4.334437       117.9460 
  82   0.0000       4.463467       121.4571 
  83   0.0000       4.463467       121.4571 
  84   0.0000       4.498534       122.4113 
  85   0.0000       4.882488       132.8592 
  86   0.0000       6.023612       163.9108 
  87   0.0000       6.023612       163.9108 
  88   0.0000       6.024986       163.9482 
  89   0.0000       6.025110       163.9516 
  90   0.0000       6.025677       163.9670 
  91   0.0000       6.025679       163.9671 
  92   0.0000       6.041480       164.3970 
  93   0.0000       6.041480       164.3970 
  94   0.0000       6.162040       167.6776 
  95   0.0000       7.835393       213.2119 
  96   0.0000       7.835800       213.2230 
  97   0.0000       7.850098       213.6120 
  98   0.0000       7.850098       213.6120 
  99   0.0000       8.014378       218.0823 
 100   0.0000      13.899904       378.2356 
 101   0.0000      13.899904       378.2356 
 102   0.0000      13.908849       378.4790 
 103   0.0000      13.908970       378.4823 
 104   0.0000      13.965071       380.0089 
 105   0.0000      13.965071       380.0089 
 106   0.0000      14.052624       382.3913 
 107   0.0000      16.473824       448.2755 
 108   0.0000      16.474018       448.2808 
 109   0.0000      16.474151       448.2845 
 110   0.0000      16.474151       448.2845 
 111   0.0000      16.474195       448.2856 
 112   0.0000      16.474634       448.2976 
 113   0.0000      16.480797       448.4653 
 114   0.0000      16.480797       448.4653 
 115   0.0000      16.513074       449.3436 

                    ********************************
                    * MULLIKEN POPULATION ANALYSIS *
                    ********************************

-----------------------
MULLIKEN ATOMIC CHARGES
-----------------------
   0 Cu:    0.264741
   1 H :   -0.264741
Sum of atomic charges:   -0.0000000

--------------------------------
MULLIKEN REDUCED ORBITAL CHARGES
--------------------------------
  0 Cus       :     6.774044  s :     6.774044
      pz      :     4.034500  p :    12.036375
      px      :     4.000937
      py      :     4.000937
      dz2     :     1.929384  d :     9.924059
      dxz     :     1.997418
      dyz     :     1.997418
      dx2y2   :     1.999928
      dxy     :     1.999911
      f0      :     0.000494  f :     0.000780
      f+1     :     0.000074
      f-1     :     0.000074
      f+2     :     0.000068
      f-2     :     0.000071
      f+3     :     0.000000
      f-3     :     0.000000
      g0      :     0.000001  g :     0.000001
      g+1     :     0.000000
      g-1     :     0.000000
      g+2     :     0.000000
      g-2     :     0.000000
      g+3     :     0.000000
      g-3     :     0.000000
      g+4     :     0.000000
      g-4     :     0.000000
  1 H s       :     1.249298  s :     1.249298
      pz      :     0.012602  p :     0.015449
      px      :     0.001423
      py      :     0.001423
      dz2     :    -0.000324  d :    -0.000006
      dxz     :     0.000148
      dyz     :     0.000148
      dx2y2   :     0.000004
      dxy     :     0.000018


                     *******************************
                     * LOEWDIN POPULATION ANALYSIS *
                     *******************************

----------------------
LOEWDIN ATOMIC CHARGES
----------------------
   0 Cu:    0.195365
   1 H :   -0.195365

-------------------------------
LOEWDIN REDUCED ORBITAL CHARGES
-------------------------------
  0 Cus       :     6.778354  s :     6.778354
      pz      :     4.094775  p :    12.088900
      px      :     3.997063
      py      :     3.997063
      dz2     :     1.972909  d :     9.933137
      dxz     :     1.981135
      dyz     :     1.981135
      dx2y2   :     1.998985
      dxy     :     1.998973
      f0      :     0.003540  f :     0.004228
      f+1     :     0.000265
      f-1     :     0.000265
      f+2     :     0.000078
      f-2     :     0.000081
      f+3     :     0.000000
      f-3     :     0.000000
      g0      :     0.000014  g :     0.000015
      g+1     :     0.000001
      g-1     :     0.000001
      g+2     :     0.000000
      g-2     :     0.000000
      g+3     :     0.000000
      g-3     :     0.000000
      g+4     :     0.000000
      g-4     :     0.000000
  1 H s       :     1.033866  s :     1.033866
      pz      :     0.074431  p :     0.089488
      px      :     0.007529
      py      :     0.007529
      dz2     :     0.042112  d :     0.072011
      dxz     :     0.014008
      dyz     :     0.014008
      dx2y2   :     0.000937
      dxy     :     0.000946


                      *****************************
                      * MAYER POPULATION ANALYSIS *
                      *****************************

  NA   - Mulliken gross atomic population
  ZA   - Total nuclear charge
  QA   - Mulliken gross atomic charge
  VA   - Mayer's total valence
  BVA  - Mayer's bonded valence
  FA   - Mayer's free valence

  ATOM       NA         ZA         QA         VA         BVA        FA
  0 Cu    28.7353    29.0000     0.2647     0.9580     0.9580     0.0000
  1 H      1.2647     1.0000    -0.2647     0.9580     0.9580     0.0000

  Mayer bond orders larger than 0.100000
B(  0-Cu,  1-H ) :   0.9580 

-------
TIMINGS
-------

Total SCF time: 0 days 0 hours 0 min 2 sec 

Total time                  ....       2.624 sec
Sum of individual times     ....       2.521 sec  ( 96.1%)

Fock matrix formation       ....       2.253 sec  ( 85.9%)
  Split-RI-J                ....       1.810 sec  ( 80.3% of F)
  XC integration            ....       0.377 sec  ( 16.7% of F)
    Basis function eval.    ....       0.024 sec  (  6.3% of XC)
    Density eval.           ....       0.015 sec  (  4.0% of XC)
    XC-Functional eval.     ....       0.007 sec  (  1.9% of XC)
    XC-Potential eval.      ....       0.031 sec  (  8.3% of XC)
Diagonalization             ....       0.029 sec  (  1.1%)
Density matrix formation    ....       0.005 sec  (  0.2%)
Population analysis         ....       0.003 sec  (  0.1%)
Initial guess               ....       0.115 sec  (  4.4%)
Orbital Transformation      ....       0.000 sec  (  0.0%)
Orbital Orthonormalization  ....       0.000 sec  (  0.0%)
DIIS solution               ....       0.015 sec  (  0.6%)
Grid generation             ....       0.100 sec  (  3.8%)


-------------------------------------------------------------------------------
                          DFT DISPERSION CORRECTION                            
                                                                               
                              DFTD3 V3.1  Rev 1                                
                          USING Becke-Johnson damping                          
-------------------------------------------------------------------------------
The TPSS functional is recognized
Active option DFTDOPT                   ...         4   

molecular C6(AA) [au] = 420.937126 


            DFT-D V3
 parameters
 s6 scaling factor         :     1.0000 
 a1 scaling factor         :     0.4535 
 s8 scaling factor         :     1.9435 
 a2 scaling factor         :     4.4752 
 ad hoc parameters k1-k3   :    16.0000     1.3333    -4.0000 

 Edisp/kcal,au: -0.523111821200  -0.000833631661 
 E6   /kcal   :  -0.231187672 
 E8   /kcal   :  -0.291924149 
 % E8         :  55.805305298 

-------------------------   ----------------
Dispersion correction           -0.000833632
-------------------------   ----------------


-------------------------   --------------------
FINAL SINGLE POINT ENERGY     -1641.136570175819
-------------------------   --------------------



           ************************************************************
           *        Program running with 24 parallel MPI-processes    *
           *              working on a common directory               *
           ************************************************************
------------------------------------------------------------------------------
                         ORCA SCF GRADIENT CALCULATION
------------------------------------------------------------------------------

Gradient of the Kohn-Sham DFT energy:
Kohn-Sham wavefunction type      ... RKS
Hartree-Fock exchange scaling    ...    0.000
Number of operators              ...    1
Number of atoms                  ...    2
Basis set dimensions             ...  116
Integral neglect threshold       ... 2.5e-11
Integral primitive cutoff        ... 2.5e-12

Nuclear repulsion gradient       ... done
One Electron Gradient            ... done
Pre-screening matrix             ... done
RI-J gradient                    ... done
Exchange-correlation gradient    ... done
Dispersion correction            ... done

------------------
CARTESIAN GRADIENT
------------------

   1   Cu  :    0.000000001    0.000000001   -0.046555033
   2   H   :   -0.000000001    0.000000000    0.046919354

Difference to translation invariance:
           :    0.0000000001    0.0000000010    0.0003643204

Norm of the cartesian gradient     ...    0.0660968747
RMS gradient                       ...    0.0269839361
MAX gradient                       ...    0.0469193535

-------
TIMINGS
-------

Total SCF gradient time            ...        4.115 sec

One electron gradient       ....       0.051 sec  (  1.2%)
Prescreening matrices       ....       3.349 sec  ( 81.4%)
RI-J Coulomb gradient       ....       0.155 sec  (  3.8%)
XC gradient                 ....       0.018 sec  (  0.4%)
------------------------------------------------------------------------------
                         ORCA GEOMETRY RELAXATION STEP
------------------------------------------------------------------------------

Reading the OPT-File                    .... done
Getting information on internals        .... done
Copying old internal coords+grads       .... done
Making the new internal coordinates     .... (new redundants).... done
Validating the new internal coordinates .... (new redundants).... done
Calculating the B-matrix                .... done
Calculating the G,G- and P matrices     .... done
Transforming gradient to internals      .... done
Projecting the internal gradient        .... done
Number of atoms                         ....   2
Number of internal coordinates          ....   1
Current Energy                          .... -1641.136570176 Eh
Current gradient norm                   ....     0.066096875 Eh/bohr
Maximum allowed component of the step   ....  0.300
Current trust radius                    ....  0.300
Evaluating the initial hessian          ....  (Almloef) done
Projecting the Hessian                  .... done
Forming the augmented Hessian           .... done
Diagonalizing the augmented Hessian     .... done
Last element of RFO vector              ....  0.951102079
Lowest eigenvalues of augmented Hessian:
 -0.015178215
Length of the computed step             ....  0.324756658
Warning: the length of the step is outside the trust region - taking restricted step instead
The input lambda is                     ....    -0.015178
   iter:   1  x=   -0.025731  g=    1.465688 f(x)=     0.015467
   iter:   2  x=   -0.027038  g=    1.185351 f(x)=     0.001549
   iter:   3  x=   -0.027054  g=    1.155771 f(x)=     0.000019
   iter:   4  x=   -0.027054  g=    1.155397 f(x)=     0.000000
   iter:   5  x=   -0.027054  g=    1.155397 f(x)=     0.000000
The output lambda is                    ....    -0.027054 (5 iterations)
The final length of the internal step   ....  0.300000000
Converting the step to cartesian space:
 Initial RMS(Int)=    0.3000000000
Transforming coordinates:
 Iter   0:  RMS(Cart)=    0.0866025404 RMS(Int)=    0.3000000000
 Iter   1:  RMS(Cart)=    0.0000000000 RMS(Int)=    0.0000000000
done
Storing new coordinates                 .... done

                                .--------------------.
          ----------------------|Geometry convergence|-------------------------
          Item                value                   Tolerance       Converged
          ---------------------------------------------------------------------
          RMS gradient        0.0467371933            0.0001000000      NO
          MAX gradient        0.0467371933            0.0003000000      NO
          RMS step            0.3000000000            0.0020000000      NO
          MAX step            0.3000000000            0.0040000000      NO
          ........................................................
          Max(Bonds)      0.1588      Max(Angles)    0.00
          Max(Dihed)        0.00      Max(Improp)    0.00
          ---------------------------------------------------------------------

The optimization has not yet converged - more geometry cycles are needed


    ---------------------------------------------------------------------------
                         Redundant Internal Coordinates
                            (Angstroem and degrees)

        Definition                    Value    dE/dq     Step     New-Value
    ----------------------------------------------------------------------------
     1. B(H   1,Cu  0)                2.0000  0.046737 -0.1588    1.8412   
    ----------------------------------------------------------------------------

         *************************************************************
         *                GEOMETRY OPTIMIZATION CYCLE   2            *
         *************************************************************
---------------------------------
CARTESIAN COORDINATES (ANGSTROEM)
---------------------------------
  Cu     0.000000    0.000000    0.079377
  H      0.000000    0.000000    1.920623

----------------------------
CARTESIAN COORDINATES (A.U.)
----------------------------
  NO LB      ZA    FRAG     MASS         X           Y           Z
   0 Cu   29.0000    0    63.550    0.000000    0.000000    0.150000
   1 H     1.0000    0     1.008    0.000000    0.000000    3.629452

--------------------------------
INTERNAL COORDINATES (ANGSTROEM)
--------------------------------
 Cu     0   0   0     0.000000000000     0.00000000     0.00000000
 H      1   0   0     1.841246837510     0.00000000     0.00000000

---------------------------
INTERNAL COORDINATES (A.U.)
---------------------------
 Cu     0   0   0     0.000000000000     0.00000000     0.00000000
 H      1   0   0     3.479452267843     0.00000000     0.00000000



           ************************************************************
           *        Program running with 24 parallel MPI-processes    *
           *              working on a common directory               *
           ************************************************************
 One Electron integrals                  ... done
 Pre-screening matrix                    ... done


           ************************************************************
           *        Program running with 24 parallel MPI-processes    *
           *              working on a common directory               *
           ************************************************************

Diagonalization of the overlap matrix:
Smallest eigenvalue                        ... 3.676e-04
Time for diagonalization                   ...    0.004 sec
Threshold for overlap eigenvalues          ... 1.000e-08
Number of eigenvalues below threshold      ... 0
Time for construction of square roots      ...    0.002 sec
Total time needed                          ...    0.006 sec

-------------------
DFT GRID GENERATION
-------------------

General Integration Accuracy     IntAcc      ...  4.340
Radial Grid Type                 RadialGrid  ... Gauss-Chebyshev
Angular Grid (max. acc.)         AngularGrid ... Lebedev-110
Angular grid pruning method      GridPruning ... 3 (G Style)
Weight generation scheme         WeightScheme... Becke
Basis function cutoff            BFCut       ...    1.0000e-11
Integration weight cutoff        WCut        ...    1.0000e-14
Grids for H and He will be reduced by one unit

# of grid points (after initial pruning)     ...   3706 (   0.0 sec)
# of grid points (after weights+screening)   ...   3684 (   0.0 sec)
nearest neighbour list constructed           ...    0.0 sec
Grid point re-assignment to atoms done       ...    0.0 sec
Grid point division into batches done        ...    0.0 sec
Reduced shell lists constructed in    0.0 sec

Total number of grid points                  ...     3684
Total number of batches                      ...       58
Average number of points per batch           ...       63
Average number of grid points per atom       ...     1842
Average number of shells per batch           ...    20.25 (59.56%)
Average number of basis functions per batch  ...    56.25 (48.49%)
Average number of large shells per batch     ...    14.25 (70.37%)
Average number of large basis fcns per batch ...    38.25 (68.00%)
Maximum spatial batch extension              ...  18.14, 26.34, 14.81 au
Average spatial batch extension              ...   0.93,  1.22,  0.77 au

Time for grid setup =    0.017 sec

--------------
SCF ITERATIONS
--------------
ITER       Energy         Delta-E        Max-DP      RMS-DP      [F,P]     Damp
               ***  Starting incremental Fock matrix formation  ***
  0  -1641.1479972308   0.000000000000 0.00542784  0.00013276  0.0164615 0.7000
  1  -1641.1481585382  -0.000161307480 0.00503140  0.00011569  0.0110681 0.7000
                               ***Turning on DIIS***
  2  -1641.1482620897  -0.000103551482 0.01229824  0.00028387  0.0072266 0.0000
  3  -1641.1484610443  -0.000198954551 0.00445240  0.00008240  0.0045700 0.0000
  4  -1641.1484958961  -0.000034851841 0.00525875  0.00010277  0.0007115 0.0000
  5  -1641.1485017855  -0.000005889423 0.00058409  0.00001530  0.0011031 0.0000
  6  -1641.1485026284  -0.000000842892 0.00074785  0.00001368  0.0009855 0.0000
  7  -1641.1485037870  -0.000001158581 0.00010612  0.00000318  0.0003861 0.0000
  8  -1641.1485038998  -0.000000112762 0.00004178  0.00000072  0.0000596 0.0000
  9  -1641.1485038488   0.000000050939 0.00000608  0.00000014  0.0000196 0.0000
 10  -1641.1485039091  -0.000000060283 0.00000179  0.00000005  0.0000037 0.0000
                            ***DIIS convergence achieved***

               *****************************************************
               *                     SUCCESS                       *
               *           SCF CONVERGED AFTER  11 CYCLES          *
               *****************************************************

Setting up the final grid:

General Integration Accuracy     IntAcc      ...  4.670
Radial Grid Type                 RadialGrid  ... Gauss-Chebyshev
Angular Grid (max. acc.)         AngularGrid ... Lebedev-302
Angular grid pruning method      GridPruning ... 3 (G Style)
Weight generation scheme         WeightScheme... Becke
Basis function cutoff            BFCut       ...    1.0000e-11
Integration weight cutoff        WCut        ...    1.0000e-14
Grids for H and He will be reduced by one unit

# of grid points (after initial pruning)     ...  12950 (   0.0 sec)
# of grid points (after weights+screening)   ...  12921 (   0.0 sec)
nearest neighbour list constructed           ...    0.0 sec
Grid point re-assignment to atoms done       ...    0.0 sec
Grid point division into batches done        ...    0.1 sec
Reduced shell lists constructed in    0.1 sec

Total number of grid points                  ...    12921
Total number of batches                      ...      202
Average number of points per batch           ...       63
Average number of grid points per atom       ...     6460
Average number of shells per batch           ...    16.20 (47.65%)
Average number of basis functions per batch  ...    35.60 (30.69%)
Average number of large shells per batch     ...     9.10 (56.17%)
Average number of large basis fcns per batch ...    18.90 (53.09%)
Maximum spatial batch extension              ...  28.79, 26.18, 17.31 au
Average spatial batch extension              ...   0.93,  0.88,  0.68 au

Final grid set up in    0.1 sec
Final integration                            ... done (   0.1 sec)
Change in XC energy                          ...    -0.001113955
Integrated number of electrons               ...    30.000014860
Previous integrated no of electrons          ...    30.000608216
Total Energy       :        -1641.14961789 Eh          -44657.95147 eV
  Last Energy change         ...   -2.5428e-08  Tolerance :   1.0000e-08
  Last MAX-Density change    ...    1.0233e-06  Tolerance :   1.0000e-07
             **** THE GBW FILE WAS UPDATED (49_CuH.gbw) ****
             **** DENSITY FILE WAS UPDATED (49_CuH.scfp) ****
             **** ENERGY FILE WAS UPDATED (49_CuH.en.tmp) ****
             **** THE GBW FILE WAS UPDATED (49_CuH.gbw) ****
             **** DENSITY FILE WAS UPDATED (49_CuH.scfp) ****
Total SCF time: 0 days 0 hours 0 min 2 sec 


-------------------------------------------------------------------------------
                          DFT DISPERSION CORRECTION                            
                                                                               
                              DFTD3 V3.1  Rev 1                                
                          USING Becke-Johnson damping                          
-------------------------------------------------------------------------------
-------------------------   ----------------
Dispersion correction           -0.000717631
-------------------------   ----------------


-------------------------   --------------------
FINAL SINGLE POINT ENERGY     -1641.150335520122
-------------------------   --------------------



           ************************************************************
           *        Program running with 24 parallel MPI-processes    *
           *              working on a common directory               *
           ************************************************************
------------------------------------------------------------------------------
                         ORCA SCF GRADIENT CALCULATION
------------------------------------------------------------------------------

Gradient of the Kohn-Sham DFT energy:
Kohn-Sham wavefunction type      ... RKS
Hartree-Fock exchange scaling    ...    0.000
Number of operators              ...    1
Number of atoms                  ...    2
Basis set dimensions             ...  116
Integral neglect threshold       ... 2.5e-11
Integral primitive cutoff        ... 2.5e-12

Nuclear repulsion gradient       ... done
One Electron Gradient            ... done
Pre-screening matrix             ... done
RI-J gradient                    ... done
Exchange-correlation gradient    ... done
Dispersion correction            ... done

------------------
CARTESIAN GRADIENT
------------------

   1   Cu  :   -0.000000000   -0.000000004   -0.043578565
   2   H   :   -0.000000000    0.000000001    0.043798768

Difference to translation invariance:
           :   -0.0000000007   -0.0000000024    0.0002202029

Norm of the cartesian gradient     ...    0.0617853013
RMS gradient                       ...    0.0252237436
MAX gradient                       ...    0.0437987683

-------
TIMINGS
-------

Total SCF gradient time            ...        4.107 sec

One electron gradient       ....       0.058 sec  (  1.4%)
Prescreening matrices       ....       3.342 sec  ( 81.4%)
RI-J Coulomb gradient       ....       0.144 sec  (  3.5%)
XC gradient                 ....       0.019 sec  (  0.5%)
------------------------------------------------------------------------------
                         ORCA GEOMETRY RELAXATION STEP
------------------------------------------------------------------------------

Reading the OPT-File                    .... done
Getting information on internals        .... done
Copying old internal coords+grads       .... done
Making the new internal coordinates     .... (new redundants).... done
Validating the new internal coordinates .... (new redundants).... done
Calculating the B-matrix                .... done
Calculating the G,G- and P matrices     .... done
Transforming gradient to internals      .... done
Projecting the internal gradient        .... done
Number of atoms                         ....   2
Number of internal coordinates          ....   1
Current Energy                          .... -1641.150335520 Eh
Current gradient norm                   ....     0.061785301 Eh/bohr
Maximum allowed component of the step   ....  0.300
Current trust radius                    ....  0.300
Updating the Hessian (BFGS)             .... done
Forming the augmented Hessian           .... done
Diagonalizing the augmented Hessian     .... done
Last element of RFO vector              ....  0.746832914
Lowest eigenvalues of augmented Hessian:
 -0.038902243
Length of the computed step             ....  0.890442448
Warning: the length of the step is outside the trust region - taking restricted step instead
The input lambda is                     ....    -0.038902
   iter:   1  x=   -0.060650  g=   32.320552 f(x)=     0.702888
   iter:   2  x=   -0.087684  g=   10.751231 f(x)=     0.290655
   iter:   3  x=   -0.114522  g=    4.075107 f(x)=     0.109366
   iter:   4  x=   -0.131165  g=    1.969425 f(x)=     0.032778
   iter:   5  x=   -0.135278  g=    1.352365 f(x)=     0.005563
   iter:   6  x=   -0.135467  g=    1.240837 f(x)=     0.000234
   iter:   7  x=   -0.135467  g=    1.236028 f(x)=     0.000000
   iter:   8  x=   -0.135467  g=    1.236018 f(x)=     0.000000
   iter:   9  x=   -0.135467  g=    1.236018 f(x)=     0.000000
The output lambda is                    ....    -0.135467 (9 iterations)
The final length of the internal step   ....  0.300000000
Converting the step to cartesian space:
 Initial RMS(Int)=    0.3000000000
Transforming coordinates:
 Iter   0:  RMS(Cart)=    0.0866025404 RMS(Int)=    0.3000000000
 Iter   1:  RMS(Cart)=    0.0000000000 RMS(Int)=    0.0000000000
done
Storing new coordinates                 .... done

                                .--------------------.
          ----------------------|Geometry convergence|-------------------------
          Item                value                   Tolerance       Converged
          ---------------------------------------------------------------------
          Energy change      -0.0137653443            0.0000050000      NO
          RMS gradient        0.0436886668            0.0001000000      NO
          MAX gradient        0.0436886668            0.0003000000      NO
          RMS step            0.3000000000            0.0020000000      NO
          MAX step            0.3000000000            0.0040000000      NO
          ........................................................
          Max(Bonds)      0.1588      Max(Angles)    0.00
          Max(Dihed)        0.00      Max(Improp)    0.00
          ---------------------------------------------------------------------

The optimization has not yet converged - more geometry cycles are needed


    ---------------------------------------------------------------------------
                         Redundant Internal Coordinates
                            (Angstroem and degrees)

        Definition                    Value    dE/dq     Step     New-Value
    ----------------------------------------------------------------------------
     1. B(H   1,Cu  0)                1.8412  0.043689 -0.1588    1.6825   
    ----------------------------------------------------------------------------

         *************************************************************
         *                GEOMETRY OPTIMIZATION CYCLE   3            *
         *************************************************************
---------------------------------
CARTESIAN COORDINATES (ANGSTROEM)
---------------------------------
  Cu     0.000000    0.000000    0.158753
  H      0.000000    0.000000    1.841247

----------------------------
CARTESIAN COORDINATES (A.U.)
----------------------------
  NO LB      ZA    FRAG     MASS         X           Y           Z
   0 Cu   29.0000    0    63.550    0.000000    0.000000    0.300000
   1 H     1.0000    0     1.008    0.000000    0.000000    3.479452

--------------------------------
INTERNAL COORDINATES (ANGSTROEM)
--------------------------------
 Cu     0   0   0     0.000000000000     0.00000000     0.00000000
 H      1   0   0     1.682493675020     0.00000000     0.00000000

---------------------------
INTERNAL COORDINATES (A.U.)
---------------------------
 Cu     0   0   0     0.000000000000     0.00000000     0.00000000
 H      1   0   0     3.179452267843     0.00000000     0.00000000



           ************************************************************
           *        Program running with 24 parallel MPI-processes    *
           *              working on a common directory               *
           ************************************************************
 One Electron integrals                  ... done
 Pre-screening matrix                    ... done


           ************************************************************
           *        Program running with 24 parallel MPI-processes    *
           *              working on a common directory               *
           ************************************************************

Diagonalization of the overlap matrix:
Smallest eigenvalue                        ... 2.942e-04
Time for diagonalization                   ...    0.003 sec
Threshold for overlap eigenvalues          ... 1.000e-08
Number of eigenvalues below threshold      ... 0
Time for construction of square roots      ...    0.002 sec
Total time needed                          ...    0.005 sec

-------------------
DFT GRID GENERATION
-------------------

General Integration Accuracy     IntAcc      ...  4.340
Radial Grid Type                 RadialGrid  ... Gauss-Chebyshev
Angular Grid (max. acc.)         AngularGrid ... Lebedev-110
Angular grid pruning method      GridPruning ... 3 (G Style)
Weight generation scheme         WeightScheme... Becke
Basis function cutoff            BFCut       ...    1.0000e-11
Integration weight cutoff        WCut        ...    1.0000e-14
Grids for H and He will be reduced by one unit

# of grid points (after initial pruning)     ...   3706 (   0.0 sec)
# of grid points (after weights+screening)   ...   3683 (   0.0 sec)
nearest neighbour list constructed           ...    0.0 sec
Grid point re-assignment to atoms done       ...    0.0 sec
Grid point division into batches done        ...    0.0 sec
Reduced shell lists constructed in    0.0 sec

Total number of grid points                  ...     3683
Total number of batches                      ...       59
Average number of points per batch           ...       62
Average number of grid points per atom       ...     1842
Average number of shells per batch           ...    20.25 (59.56%)
Average number of basis functions per batch  ...    56.25 (48.49%)
Average number of large shells per batch     ...    14.25 (70.37%)
Average number of large basis fcns per batch ...    38.25 (68.00%)
Maximum spatial batch extension              ...  34.10, 26.34, 18.50 au
Average spatial batch extension              ...   1.19,  1.20,  0.81 au

Time for grid setup =    0.016 sec

--------------
SCF ITERATIONS
--------------
ITER       Energy         Delta-E        Max-DP      RMS-DP      [F,P]     Damp
               ***  Starting incremental Fock matrix formation  ***
  0  -1641.1600050071   0.000000000000 0.00748126  0.00018329  0.0207303 0.7000
  1  -1641.1602243477  -0.000219340602 0.00644923  0.00015949  0.0142570 0.7000
                               ***Turning on DIIS***
  2  -1641.1603684431  -0.000144095349 0.01698268  0.00040149  0.0093095 0.0000
  3  -1641.1606720344  -0.000303591344 0.00530114  0.00009472  0.0043588 0.0000
  4  -1641.1607071951  -0.000035160662 0.00221915  0.00004236  0.0013200 0.0000
  5  -1641.1607116763  -0.000004481239 0.00152844  0.00002841  0.0015455 0.0000
  6  -1641.1607146922  -0.000003015832 0.00061602  0.00001368  0.0011444 0.0000
  7  -1641.1607164345  -0.000001742311 0.00130770  0.00002682  0.0002350 0.0000
  8  -1641.1607173366  -0.000000902088 0.00018318  0.00000329  0.0001188 0.0000
  9  -1641.1607174443  -0.000000107738 0.00003857  0.00000071  0.0000233 0.0000
 10  -1641.1607175724  -0.000000128129 0.00001254  0.00000019  0.0000074 0.0000
 11  -1641.1607175826  -0.000000010131 0.00000411  0.00000007  0.0000024 0.0000
                            ***DIIS convergence achieved***

               *****************************************************
               *                     SUCCESS                       *
               *           SCF CONVERGED AFTER  12 CYCLES          *
               *****************************************************

Setting up the final grid:

General Integration Accuracy     IntAcc      ...  4.670
Radial Grid Type                 RadialGrid  ... Gauss-Chebyshev
Angular Grid (max. acc.)         AngularGrid ... Lebedev-302
Angular grid pruning method      GridPruning ... 3 (G Style)
Weight generation scheme         WeightScheme... Becke
Basis function cutoff            BFCut       ...    1.0000e-11
Integration weight cutoff        WCut        ...    1.0000e-14
Grids for H and He will be reduced by one unit

# of grid points (after initial pruning)     ...  12950 (   0.0 sec)
# of grid points (after weights+screening)   ...  12915 (   0.0 sec)
nearest neighbour list constructed           ...    0.0 sec
Grid point re-assignment to atoms done       ...    0.0 sec
Grid point division into batches done        ...    0.1 sec
Reduced shell lists constructed in    0.1 sec

Total number of grid points                  ...    12915
Total number of batches                      ...      203
Average number of points per batch           ...       63
Average number of grid points per atom       ...     6458
Average number of shells per batch           ...    16.00 (47.06%)
Average number of basis functions per batch  ...    35.00 (30.17%)
Average number of large shells per batch     ...     9.10 (56.88%)
Average number of large basis fcns per batch ...    18.90 (54.00%)
Maximum spatial batch extension              ...  28.79, 26.18, 17.31 au
Average spatial batch extension              ...   0.92,  0.88,  0.67 au

Final grid set up in    0.1 sec
Final integration                            ... done (   0.1 sec)
Change in XC energy                          ...    -0.001114365
Integrated number of electrons               ...    30.000015244
Previous integrated no of electrons          ...    30.001326440
Total Energy       :        -1641.16183189 Eh          -44658.28383 eV
  Last Energy change         ...    6.1313e-08  Tolerance :   1.0000e-08
  Last MAX-Density change    ...    9.9689e-07  Tolerance :   1.0000e-07
             **** THE GBW FILE WAS UPDATED (49_CuH.gbw) ****
             **** DENSITY FILE WAS UPDATED (49_CuH.scfp) ****
             **** ENERGY FILE WAS UPDATED (49_CuH.en.tmp) ****
             **** THE GBW FILE WAS UPDATED (49_CuH.gbw) ****
             **** DENSITY FILE WAS UPDATED (49_CuH.scfp) ****
Total SCF time: 0 days 0 hours 0 min 2 sec 


-------------------------------------------------------------------------------
                          DFT DISPERSION CORRECTION                            
                                                                               
                              DFTD3 V3.1  Rev 1                                
                          USING Becke-Johnson damping                          
-------------------------------------------------------------------------------
-------------------------   ----------------
Dispersion correction           -0.000469899
-------------------------   ----------------


-------------------------   --------------------
FINAL SINGLE POINT ENERGY     -1641.162301785572
-------------------------   --------------------



           ************************************************************
           *        Program running with 24 parallel MPI-processes    *
           *              working on a common directory               *
           ************************************************************
------------------------------------------------------------------------------
                         ORCA SCF GRADIENT CALCULATION
------------------------------------------------------------------------------

Gradient of the Kohn-Sham DFT energy:
Kohn-Sham wavefunction type      ... RKS
Hartree-Fock exchange scaling    ...    0.000
Number of operators              ...    1
Number of atoms                  ...    2
Basis set dimensions             ...  116
Integral neglect threshold       ... 2.5e-11
Integral primitive cutoff        ... 2.5e-12

Nuclear repulsion gradient       ... done
One Electron Gradient            ... done
Pre-screening matrix             ... done
RI-J gradient                    ... done
Exchange-correlation gradient    ... done
Dispersion correction            ... done

------------------
CARTESIAN GRADIENT
------------------

   1   Cu  :   -0.000000001    0.000000001   -0.034399809
   2   H   :    0.000000000    0.000000001    0.034556888

Difference to translation invariance:
           :   -0.0000000006    0.0000000019    0.0001570786

Norm of the cartesian gradient     ...    0.0487598748
RMS gradient                       ...    0.0199061355
MAX gradient                       ...    0.0345568879

-------
TIMINGS
-------

Total SCF gradient time            ...        4.097 sec

One electron gradient       ....       0.046 sec  (  1.1%)
Prescreening matrices       ....       3.347 sec  ( 81.7%)
RI-J Coulomb gradient       ....       0.151 sec  (  3.7%)
XC gradient                 ....       0.019 sec  (  0.5%)
------------------------------------------------------------------------------
                         ORCA GEOMETRY RELAXATION STEP
------------------------------------------------------------------------------

Reading the OPT-File                    .... done
Getting information on internals        .... done
Copying old internal coords+grads       .... done
Making the new internal coordinates     .... (new redundants).... done
Validating the new internal coordinates .... (new redundants).... done
Calculating the B-matrix                .... done
Calculating the G,G- and P matrices     .... done
Transforming gradient to internals      .... done
Projecting the internal gradient        .... done
Number of atoms                         ....   2
Number of internal coordinates          ....   1
Current Energy                          .... -1641.162301786 Eh
Current gradient norm                   ....     0.048759875 Eh/bohr
Maximum allowed component of the step   ....  0.300
Current trust radius                    ....  0.300
Updating the Hessian (BFGS)             .... done
Forming the augmented Hessian           .... done
Diagonalizing the augmented Hessian     .... done
Last element of RFO vector              ....  0.838669121
Lowest eigenvalues of augmented Hessian:
 -0.022390632
Length of the computed step             ....  0.649411371
Warning: the length of the step is outside the trust region - taking restricted step instead
The input lambda is                     ....    -0.022391
   iter:   1  x=   -0.043271  g=   15.887048 f(x)=     0.331735
   iter:   2  x=   -0.064935  g=    5.873692 f(x)=     0.127246
   iter:   3  x=   -0.079641  g=    2.718036 f(x)=     0.039971
   iter:   4  x=   -0.083956  g=    1.769691 f(x)=     0.007636
   iter:   5  x=   -0.084226  g=    1.577324 f(x)=     0.000426
   iter:   6  x=   -0.084227  g=    1.566239 f(x)=     0.000001
   iter:   7  x=   -0.084227  g=    1.566200 f(x)=     0.000000
   iter:   8  x=   -0.084227  g=    1.566200 f(x)=     0.000000
The output lambda is                    ....    -0.084227 (8 iterations)
The final length of the internal step   ....  0.300000000
Converting the step to cartesian space:
 Initial RMS(Int)=    0.3000000000
Transforming coordinates:
 Iter   0:  RMS(Cart)=    0.0866025404 RMS(Int)=    0.3000000000
 Iter   1:  RMS(Cart)=    0.0000000000 RMS(Int)=    0.0000000000
done
Storing new coordinates                 .... done

                                .--------------------.
          ----------------------|Geometry convergence|-------------------------
          Item                value                   Tolerance       Converged
          ---------------------------------------------------------------------
          Energy change      -0.0119662655            0.0000050000      NO
          RMS gradient        0.0344783486            0.0001000000      NO
          MAX gradient        0.0344783486            0.0003000000      NO
          RMS step            0.3000000000            0.0020000000      NO
          MAX step            0.3000000000            0.0040000000      NO
          ........................................................
          Max(Bonds)      0.1588      Max(Angles)    0.00
          Max(Dihed)        0.00      Max(Improp)    0.00
          ---------------------------------------------------------------------

The optimization has not yet converged - more geometry cycles are needed


    ---------------------------------------------------------------------------
                         Redundant Internal Coordinates
                            (Angstroem and degrees)

        Definition                    Value    dE/dq     Step     New-Value
    ----------------------------------------------------------------------------
     1. B(H   1,Cu  0)                1.6825  0.034478 -0.1588    1.5237   
    ----------------------------------------------------------------------------

         *************************************************************
         *                GEOMETRY OPTIMIZATION CYCLE   4            *
         *************************************************************
---------------------------------
CARTESIAN COORDINATES (ANGSTROEM)
---------------------------------
  Cu     0.000000    0.000000    0.238130
  H      0.000000    0.000000    1.761870

----------------------------
CARTESIAN COORDINATES (A.U.)
----------------------------
  NO LB      ZA    FRAG     MASS         X           Y           Z
   0 Cu   29.0000    0    63.550    0.000000    0.000000    0.450000
   1 H     1.0000    0     1.008    0.000000    0.000000    3.329452

--------------------------------
INTERNAL COORDINATES (ANGSTROEM)
--------------------------------
 Cu     0   0   0     0.000000000000     0.00000000     0.00000000
 H      1   0   0     1.523740512530     0.00000000     0.00000000

---------------------------
INTERNAL COORDINATES (A.U.)
---------------------------
 Cu     0   0   0     0.000000000000     0.00000000     0.00000000
 H      1   0   0     2.879452267843     0.00000000     0.00000000



           ************************************************************
           *        Program running with 24 parallel MPI-processes    *
           *              working on a common directory               *
           ************************************************************
 One Electron integrals                  ... done
 Pre-screening matrix                    ... done


           ************************************************************
           *        Program running with 24 parallel MPI-processes    *
           *              working on a common directory               *
           ************************************************************

Diagonalization of the overlap matrix:
Smallest eigenvalue                        ... 2.207e-04
Time for diagonalization                   ...    0.004 sec
Threshold for overlap eigenvalues          ... 1.000e-08
Number of eigenvalues below threshold      ... 0
Time for construction of square roots      ...    0.002 sec
Total time needed                          ...    0.006 sec

-------------------
DFT GRID GENERATION
-------------------

General Integration Accuracy     IntAcc      ...  4.340
Radial Grid Type                 RadialGrid  ... Gauss-Chebyshev
Angular Grid (max. acc.)         AngularGrid ... Lebedev-110
Angular grid pruning method      GridPruning ... 3 (G Style)
Weight generation scheme         WeightScheme... Becke
Basis function cutoff            BFCut       ...    1.0000e-11
Integration weight cutoff        WCut        ...    1.0000e-14
Grids for H and He will be reduced by one unit

# of grid points (after initial pruning)     ...   3706 (   0.0 sec)
# of grid points (after weights+screening)   ...   3681 (   0.0 sec)
nearest neighbour list constructed           ...    0.0 sec
Grid point re-assignment to atoms done       ...    0.0 sec
Grid point division into batches done        ...    0.0 sec
Reduced shell lists constructed in    0.0 sec

Total number of grid points                  ...     3681
Total number of batches                      ...       58
Average number of points per batch           ...       63
Average number of grid points per atom       ...     1840
Average number of shells per batch           ...    20.25 (59.56%)
Average number of basis functions per batch  ...    56.25 (48.49%)
Average number of large shells per batch     ...    15.00 (74.07%)
Average number of large basis fcns per batch ...    40.50 (72.00%)
Maximum spatial batch extension              ...  34.10, 26.34, 18.34 au
Average spatial batch extension              ...   1.21,  1.23,  0.81 au

Time for grid setup =    0.016 sec

--------------
SCF ITERATIONS
--------------
ITER       Energy         Delta-E        Max-DP      RMS-DP      [F,P]     Damp
               ***  Starting incremental Fock matrix formation  ***
  0  -1641.1672693963   0.000000000000 0.01400378  0.00028376  0.0262262 0.7000
  1  -1641.1675736554  -0.000304259008 0.01293995  0.00024609  0.0178917 0.7000
                               ***Turning on DIIS***
  2  -1641.1677816974  -0.000208042020 0.03588004  0.00062197  0.0117497 0.0000
  3  -1641.1682553196  -0.000473622195 0.00654028  0.00010455  0.0039445 0.0000
  4  -1641.1682873482  -0.000032028640 0.00219098  0.00004462  0.0019865 0.0000
  5  -1641.1682927221  -0.000005373865 0.00160754  0.00003158  0.0021484 0.0000
  6  -1641.1682977499  -0.000005027839 0.00070092  0.00001472  0.0010204 0.0000
  7  -1641.1682993813  -0.000001631424 0.00120009  0.00002456  0.0002479 0.0000
  8  -1641.1683002613  -0.000000879978 0.00023029  0.00000364  0.0001332 0.0000
  9  -1641.1683003217  -0.000000060375 0.00004320  0.00000081  0.0000360 0.0000
 10  -1641.1683003743  -0.000000052659 0.00001560  0.00000031  0.0000173 0.0000
 11  -1641.1683004283  -0.000000053948 0.00002819  0.00000045  0.0000089 0.0000
 12  -1641.1683003757   0.000000052600 0.00000964  0.00000013  0.0000034 0.0000
                            ***DIIS convergence achieved***

               *****************************************************
               *                     SUCCESS                       *
               *           SCF CONVERGED AFTER  13 CYCLES          *
               *****************************************************

Setting up the final grid:

General Integration Accuracy     IntAcc      ...  4.670
Radial Grid Type                 RadialGrid  ... Gauss-Chebyshev
Angular Grid (max. acc.)         AngularGrid ... Lebedev-302
Angular grid pruning method      GridPruning ... 3 (G Style)
Weight generation scheme         WeightScheme... Becke
Basis function cutoff            BFCut       ...    1.0000e-11
Integration weight cutoff        WCut        ...    1.0000e-14
Grids for H and He will be reduced by one unit

# of grid points (after initial pruning)     ...  12950 (   0.0 sec)
# of grid points (after weights+screening)   ...  12914 (   0.0 sec)
nearest neighbour list constructed           ...    0.0 sec
Grid point re-assignment to atoms done       ...    0.0 sec
Grid point division into batches done        ...    0.1 sec
Reduced shell lists constructed in    0.1 sec

Total number of grid points                  ...    12914
Total number of batches                      ...      203
Average number of points per batch           ...       63
Average number of grid points per atom       ...     6457
Average number of shells per batch           ...    16.00 (47.06%)
Average number of basis functions per batch  ...    35.00 (30.17%)
Average number of large shells per batch     ...     9.10 (56.88%)
Average number of large basis fcns per batch ...    18.90 (54.00%)
Maximum spatial batch extension              ...  28.79, 26.18, 17.31 au
Average spatial batch extension              ...   0.92,  0.88,  0.67 au

Final grid set up in    0.1 sec
Final integration                            ... done (   0.1 sec)
Change in XC energy                          ...    -0.000993615
Integrated number of electrons               ...    30.000012128
Previous integrated no of electrons          ...    30.002468834
Total Energy       :        -1641.16929405 Eh          -44658.48688 eV
  Last Energy change         ...   -6.1385e-08  Tolerance :   1.0000e-08
  Last MAX-Density change    ...    3.2435e-06  Tolerance :   1.0000e-07
             **** THE GBW FILE WAS UPDATED (49_CuH.gbw) ****
             **** DENSITY FILE WAS UPDATED (49_CuH.scfp) ****
             **** ENERGY FILE WAS UPDATED (49_CuH.en.tmp) ****
             **** THE GBW FILE WAS UPDATED (49_CuH.gbw) ****
             **** DENSITY FILE WAS UPDATED (49_CuH.scfp) ****
Total SCF time: 0 days 0 hours 0 min 2 sec 


-------------------------------------------------------------------------------
[...]
DFT GRID GENERATION
-------------------

General Integration Accuracy     IntAcc      ...  4.340
Radial Grid Type                 RadialGrid  ... Gauss-Chebyshev
Angular Grid (max. acc.)         AngularGrid ... Lebedev-110
Angular grid pruning method      GridPruning ... 3 (G Style)
Weight generation scheme         WeightScheme... Becke
Basis function cutoff            BFCut       ...    1.0000e-11
Integration weight cutoff        WCut        ...    1.0000e-14
Grids for H and He will be reduced by one unit

# of grid points (after initial pruning)     ...   3706 (   0.0 sec)
# of grid points (after weights+screening)   ...   3681 (   0.0 sec)
nearest neighbour list constructed           ...    0.0 sec
Grid point re-assignment to atoms done       ...    0.0 sec
Grid point division into batches done        ...    0.0 sec
Reduced shell lists constructed in    0.0 sec

Total number of grid points                  ...     3681
Total number of batches                      ...       58
Average number of points per batch           ...       63
Average number of grid points per atom       ...     1840
Average number of shells per batch           ...    20.25 (59.56%)
Average number of basis functions per batch  ...    56.25 (48.49%)
Average number of large shells per batch     ...    15.00 (74.07%)
Average number of large basis fcns per batch ...    40.50 (72.00%)
Maximum spatial batch extension              ...  34.10, 26.34, 18.34 au
Average spatial batch extension              ...   1.21,  1.23,  0.81 au

Time for grid setup =    0.016 sec

--------------
SCF ITERATIONS
--------------
ITER       Energy         Delta-E        Max-DP      RMS-DP      [F,P]     Damp
               ***  Starting incremental Fock matrix formation  ***
  0  -1641.1688950145   0.000000000000 0.00002994  0.00000053  0.0000478 0.7000
  1  -1641.1688949940   0.000000020515 0.00002785  0.00000046  0.0000335 0.7000
                               ***Turning on DIIS***
  2  -1641.1688950073  -0.000000013295 0.00008673  0.00000123  0.0000235 0.0000
  3  -1641.1688950210  -0.000000013752 0.00000693  0.00000012  0.0000033 0.0000
  4  -1641.1688950054   0.000000015628 0.00000552  0.00000011  0.0000095 0.0000
  5  -1641.1688949957   0.000000009647 0.00000681  0.00000010  0.0000030 0.0000
                            ***DIIS convergence achieved***

               *****************************************************
               *                     SUCCESS                       *
               *           SCF CONVERGED AFTER   6 CYCLES          *
               *****************************************************

Setting up the final grid:

General Integration Accuracy     IntAcc      ...  4.670
Radial Grid Type                 RadialGrid  ... Gauss-Chebyshev
Angular Grid (max. acc.)         AngularGrid ... Lebedev-302
Angular grid pruning method      GridPruning ... 3 (G Style)
Weight generation scheme         WeightScheme... Becke
Basis function cutoff            BFCut       ...    1.0000e-11
Integration weight cutoff        WCut        ...    1.0000e-14
Grids for H and He will be reduced by one unit

# of grid points (after initial pruning)     ...  12950 (   0.0 sec)
# of grid points (after weights+screening)   ...  12913 (   0.0 sec)
nearest neighbour list constructed           ...    0.0 sec
Grid point re-assignment to atoms done       ...    0.0 sec
Grid point division into batches done        ...    0.1 sec
Reduced shell lists constructed in    0.1 sec

Total number of grid points                  ...    12913
Total number of batches                      ...      203
Average number of points per batch           ...       63
Average number of grid points per atom       ...     6456
Average number of shells per batch           ...    16.00 (47.06%)
Average number of basis functions per batch  ...    35.00 (30.17%)
Average number of large shells per batch     ...     9.10 (56.88%)
Average number of large basis fcns per batch ...    18.90 (54.00%)
Maximum spatial batch extension              ...  28.79, 26.18, 17.10 au
Average spatial batch extension              ...   0.92,  0.88,  0.65 au

Final grid set up in    0.1 sec
Final integration                            ... done (   0.1 sec)
Change in XC energy                          ...    -0.000942202
Integrated number of electrons               ...    30.000012296
Previous integrated no of electrons          ...    30.002878150

----------------
TOTAL SCF ENERGY
----------------

Total Energy       :        -1641.16983723 Eh          -44658.50167 eV

Components:
Nuclear Repulsion  :           10.39553304 Eh             282.87684 eV
Electronic Energy  :        -1651.56537028 Eh          -44941.37850 eV
One Electron Energy:        -2307.88663866 Eh          -62800.78817 eV
Two Electron Energy:          656.32126839 Eh           17859.40967 eV

Virial components:
Potential Energy   :        -3280.09337103 Eh          -89255.87831 eV
Kinetic Energy     :         1638.92353380 Eh           44597.37664 eV
Virial Ratio       :            2.00137060


DFT components:
N(Alpha)           :       15.000006148049 electrons
N(Beta)            :       15.000006148049 electrons
N(Total)           :       30.000012296099 electrons
E(X)               :      -66.144716483778 Eh       
E(C)               :       -1.379417843288 Eh       
E(XC)              :      -67.524134327067 Eh       
DFET-embed. en.    :        0.000000000000 Eh       

---------------
SCF CONVERGENCE
---------------

  Last Energy change         ...   -3.6263e-08  Tolerance :   1.0000e-08
  Last MAX-Density change    ...    1.2240e-05  Tolerance :   1.0000e-07
  Last RMS-Density change    ...    1.9237e-07  Tolerance :   5.0000e-09
  Last DIIS Error            ...    5.6403e-07  Tolerance :   5.0000e-07

             **** THE GBW FILE WAS UPDATED (49_CuH.gbw) ****
             **** DENSITY FILE WAS UPDATED (49_CuH.scfp) ****
             **** ENERGY FILE WAS UPDATED (49_CuH.en.tmp) ****
             **** THE GBW FILE WAS UPDATED (49_CuH.gbw) ****
             **** DENSITY FILE WAS UPDATED (49_CuH.scfp) ****
----------------
ORBITAL ENERGIES
----------------

  NO   OCC          E(Eh)            E(eV) 
   0   2.0000    -322.086734     -8764.4256 
   1   2.0000     -38.376092     -1044.2665 
   2   2.0000     -33.593502      -914.1257 
   3   2.0000     -33.593051      -914.1134 
   4   2.0000     -33.593051      -914.1134 
   5   2.0000      -4.153945      -113.0346 
   6   2.0000      -2.671180       -72.6865 
   7   2.0000      -2.661770       -72.4304 
   8   2.0000      -2.661770       -72.4304 
   9   2.0000      -0.295615        -8.0441 
  10   2.0000      -0.217647        -5.9225 
  11   2.0000      -0.217647        -5.9225 
  12   2.0000      -0.209408        -5.6983 
  13   2.0000      -0.209314        -5.6957 
  14   2.0000      -0.195974        -5.3327 
  15   0.0000      -0.097550        -2.6545 
  16   0.0000      -0.022073        -0.6006 
  17   0.0000      -0.022073        -0.6006 
  18   0.0000       0.009995         0.2720 
  19   0.0000       0.020796         0.5659 
  20   0.0000       0.042268         1.1502 
  21   0.0000       0.042268         1.1502 
  22   0.0000       0.060963         1.6589 
  23   0.0000       0.104613         2.8467 
  24   0.0000       0.121224         3.2987 
  25   0.0000       0.121224         3.2987 
  26   0.0000       0.129939         3.5358 
  27   0.0000       0.131098         3.5673 
  28   0.0000       0.135622         3.6905 
  29   0.0000       0.195085         5.3085 
  30   0.0000       0.210693         5.7332 
  31   0.0000       0.210693         5.7332 
  32   0.0000       0.259754         7.0683 
  33   0.0000       0.291556         7.9336 
  34   0.0000       0.291556         7.9336 
  35   0.0000       0.411635        11.2011 
  36   0.0000       0.545866        14.8538 
  37   0.0000       0.550842        14.9892 
  38   0.0000       0.550842        14.9892 
  39   0.0000       0.565825        15.3969 
  40   0.0000       0.566191        15.4069 
  41   0.0000       0.684499        18.6262 
  42   0.0000       0.739130        20.1128 
  43   0.0000       0.740946        20.1622 
  44   0.0000       0.785583        21.3768 
  45   0.0000       0.902010        24.5450 
  46   0.0000       0.902010        24.5450 
  47   0.0000       0.942973        25.6596 
  48   0.0000       0.942973        25.6596 
  49   0.0000       0.967712        26.3328 
  50   0.0000       1.091063        29.6893 
  51   0.0000       1.091063        29.6893 
  52   0.0000       1.238801        33.7095 
  53   0.0000       1.420588        38.6562 
  54   0.0000       1.420588        38.6562 
  55   0.0000       1.535829        41.7920 
  56   0.0000       1.548768        42.1441 
  57   0.0000       1.550980        42.2043 
  58   0.0000       1.876982        51.0753 
  59   0.0000       1.876982        51.0753 
  60   0.0000       1.956631        53.2426 
  61   0.0000       2.105232        57.2863 
  62   0.0000       2.106029        57.3080 
  63   0.0000       2.136956        58.1495 
  64   0.0000       2.136956        58.1495 
  65   0.0000       2.519879        68.5694 
  66   0.0000       3.036676        82.6321 
  67   0.0000       3.685605       100.2904 
  68   0.0000       3.699186       100.6600 
  69   0.0000       3.769935       102.5851 
  70   0.0000       3.848138       104.7132 
  71   0.0000       3.848138       104.7132 
  72   0.0000       4.100752       111.5871 
  73   0.0000       4.100752       111.5871 
  74   0.0000       4.154439       113.0480 
  75   0.0000       4.231580       115.1471 
  76   0.0000       4.231580       115.1471 
  77   0.0000       4.320750       117.5736 
  78   0.0000       4.320750       117.5736 
  79   0.0000       4.376611       119.0936 
  80   0.0000       4.379587       119.1746 
  81   0.0000       4.525397       123.1423 
  82   0.0000       4.562146       124.1423 
  83   0.0000       4.562146       124.1423 
  84   0.0000       4.708679       128.1297 
  85   0.0000       5.294477       144.0700 
  86   0.0000       6.027427       164.0146 
  87   0.0000       6.027427       164.0146 
  88   0.0000       6.033100       164.1690 
  89   0.0000       6.033316       164.1749 
  90   0.0000       6.048693       164.5933 
  91   0.0000       6.051524       164.6703 
  92   0.0000       6.364874       173.1970 
  93   0.0000       6.364874       173.1970 
  94   0.0000       6.701619       182.3603 
  95   0.0000       7.833977       213.1733 
  96   0.0000       7.834051       213.1754 
  97   0.0000       7.927348       215.7141 
  98   0.0000       7.927348       215.7141 
  99   0.0000       9.253148       251.7910 
 100   0.0000      13.894426       378.0866 
 101   0.0000      13.894426       378.0866 
 102   0.0000      13.923343       378.8734 
 103   0.0000      13.923918       378.8891 
 104   0.0000      14.008452       381.1893 
 105   0.0000      14.008452       381.1893 
 106   0.0000      14.078233       383.0882 
 107   0.0000      16.469853       448.1675 
 108   0.0000      16.469853       448.1675 
 109   0.0000      16.472284       448.2336 
 110   0.0000      16.472897       448.2503 
 111   0.0000      16.475843       448.3305 
 112   0.0000      16.476205       448.3403 
 113   0.0000      16.601721       451.7558 
 114   0.0000      16.601721       451.7558 
 115   0.0000      16.836378       458.1411 

                    ********************************
                    * MULLIKEN POPULATION ANALYSIS *
                    ********************************

-----------------------
MULLIKEN ATOMIC CHARGES
-----------------------
   0 Cu:    0.016100
   1 H :   -0.016100
Sum of atomic charges:   -0.0000000

--------------------------------
MULLIKEN REDUCED ORBITAL CHARGES
--------------------------------
  0 Cus       :     7.057516  s :     7.057516
      pz      :     4.090302  p :    12.092242
      px      :     4.000970
      py      :     4.000970
      dz2     :     1.849609  d :     9.832315
      dxz     :     1.991627
      dyz     :     1.991627
      dx2y2   :     1.999680
      dxy     :     1.999772
      f0      :     0.001607  f :     0.001782
      f+1     :     0.000014
      f-1     :     0.000014
      f+2     :     0.000075
      f-2     :     0.000072
      f+3     :     0.000000
      f-3     :     0.000000
      g0      :     0.000036  g :     0.000046
      g+1     :     0.000004
      g-1     :     0.000004
      g+2     :     0.000001
      g-2     :     0.000001
      g+3     :     0.000000
      g-3     :     0.000000
      g+4     :     0.000000
      g-4     :     0.000000
  1 H s       :     1.014237  s :     1.014237
      pz      :    -0.012595  p :     0.000169
      px      :     0.006382
      py      :     0.006382
      dz2     :    -0.000712  d :     0.001694
      dxz     :     0.001003
      dyz     :     0.001003
      dx2y2   :     0.000244
      dxy     :     0.000155


                     *******************************
                     * LOEWDIN POPULATION ANALYSIS *
                     *******************************

----------------------
LOEWDIN ATOMIC CHARGES
----------------------
   0 Cu:    0.492614
   1 H :   -0.492614

-------------------------------
LOEWDIN REDUCED ORBITAL CHARGES
-------------------------------
  0 Cus       :     6.750350  s :     6.750350
      pz      :     4.076278  p :    12.010168
      px      :     3.966945
      py      :     3.966945
      dz2     :     1.857855  d :     9.734867
      dxz     :     1.946089
      dyz     :     1.946089
      dx2y2   :     1.992392
      dxy     :     1.992443
      f0      :     0.009597  f :     0.011827
      f+1     :     0.000935
      f-1     :     0.000935
      f+2     :     0.000183
      f-2     :     0.000178
      f+3     :     0.000000
      f-3     :     0.000000
      g0      :     0.000150  g :     0.000173
      g+1     :     0.000011
      g-1     :     0.000011
      g+2     :     0.000000
      g-2     :     0.000000
      g+3     :     0.000000
      g-3     :     0.000000
      g+4     :     0.000000
      g-4     :     0.000000
  1 H s       :     1.011320  s :     1.011320
      pz      :     0.174429  p :     0.247703
      px      :     0.036637
      py      :     0.036637
      dz2     :     0.120021  d :     0.233592
      dxz     :     0.049384
      dyz     :     0.049384
      dx2y2   :     0.007425
      dxy     :     0.007379


                      *****************************
                      * MAYER POPULATION ANALYSIS *
                      *****************************

  NA   - Mulliken gross atomic population
  ZA   - Total nuclear charge
  QA   - Mulliken gross atomic charge
  VA   - Mayer's total valence
  BVA  - Mayer's bonded valence
  FA   - Mayer's free valence

  ATOM       NA         ZA         QA         VA         BVA        FA
  0 Cu    28.9839    29.0000     0.0161     1.0524     1.0524    -0.0000
  1 H      1.0161     1.0000    -0.0161     1.0524     1.0524    -0.0000

  Mayer bond orders larger than 0.100000
B(  0-Cu,  1-H ) :   1.0524 

-------
TIMINGS
-------

Total SCF time: 0 days 0 hours 0 min 1 sec 

Total time                  ....       1.299 sec
Sum of individual times     ....       1.144 sec  ( 88.1%)

Fock matrix formation       ....       1.024 sec  ( 78.8%)
  Split-RI-J                ....       0.806 sec  ( 78.7% of F)
  XC integration            ....       0.078 sec  (  7.6% of F)
    Basis function eval.    ....       0.013 sec  ( 16.1% of XC)
    Density eval.           ....       0.010 sec  ( 12.7% of XC)
    XC-Functional eval.     ....       0.004 sec  (  4.7% of XC)
    XC-Potential eval.      ....       0.018 sec  ( 23.3% of XC)
Diagonalization             ....       0.012 sec  (  1.0%)
Density matrix formation    ....       0.002 sec  (  0.2%)
Population analysis         ....       0.003 sec  (  0.3%)
Initial guess               ....       0.007 sec  (  0.5%)
Orbital Transformation      ....       0.000 sec  (  0.0%)
Orbital Orthonormalization  ....       0.003 sec  (  0.3%)
DIIS solution               ....       0.004 sec  (  0.3%)
Grid generation             ....       0.092 sec  (  7.1%)


-------------------------------------------------------------------------------
                          DFT DISPERSION CORRECTION                            
                                                                               
                              DFTD3 V3.1  Rev 1                                
                          USING Becke-Johnson damping                          
-------------------------------------------------------------------------------
The TPSS functional is recognized
Active option DFTDOPT                   ...         4   

molecular C6(AA) [au] = 226.481246 


            DFT-D V3
 parameters
 s6 scaling factor         :     1.0000 
 a1 scaling factor         :     0.4535 
 s8 scaling factor         :     1.9435 
 a2 scaling factor         :     4.4752 
 ad hoc parameters k1-k3   :    16.0000     1.3333    -4.0000 

 Edisp/kcal,au: -0.265802341336  -0.000423582948 
 E6   /kcal   :  -0.118370998 
 E8   /kcal   :  -0.147431343 
 % E8         :  55.466532844 

-------------------------   ----------------
Dispersion correction           -0.000423583
-------------------------   ----------------


-------------------------   --------------------
FINAL SINGLE POINT ENERGY     -1641.170260817433
-------------------------   --------------------

                                *** OPTIMIZATION RUN DONE ***

                            ***************************************
                            *     ORCA property calculations      *
                            ***************************************

                                    ---------------------
                                    Active property flags
                                    ---------------------
   (+) Dipole Moment


------------------------------------------------------------------------------
                       ORCA ELECTRIC PROPERTIES CALCULATION
------------------------------------------------------------------------------

Dipole Moment Calculation                       ... on
Quadrupole Moment Calculation                   ... off
Polarizability Calculation                      ... off
GBWName                                         ... 49_CuH.gbw
Electron density file                           ... 49_CuH.scfp
The origin for moment calculation is the CENTER OF MASS  = ( 0.000000,  0.000000  0.538454)

-------------
DIPOLE MOMENT
-------------
                                X             Y             Z
Electronic contribution:     -0.00000      -0.00000      -2.48902
Nuclear contribution   :      0.00000       0.00000       1.48294
                        -----------------------------------------
Total Dipole Moment    :     -0.00000      -0.00000      -1.00608
                        -----------------------------------------
Magnitude (a.u.)       :      1.00608
Magnitude (Debye)      :      2.55725



--------------------
Rotational spectrum 
--------------------
 
Rotational constants in cm-1:     0.000000     7.795898     7.795898 
Rotational constants in MHz :     0.000000 233715.143643 233715.143643 

 Dipole components along the rotational axes: 
x,y,z [a.u.] :    -1.006078    -0.000000    -0.000000 
x,y,z [Debye]:    -2.557247    -0.000000    -0.000000 

 

Timings for individual modules:

Sum of individual times         ...       70.280 sec (=   1.171 min)
GTO integral calculation        ...       20.045 sec (=   0.334 min)  28.5 %
SCF iterations                  ...       18.530 sec (=   0.309 min)  26.4 %
SCF Gradient evaluation         ...       31.484 sec (=   0.525 min)  44.8 %
Geometry relaxation             ...        0.221 sec (=   0.004 min)   0.3 %
                             ****ORCA TERMINATED NORMALLY****
TOTAL RUN TIME: 0 days 0 hours 1 minutes 11 seconds 285 msec
