
                                 *****************
                                 * O   R   C   A *
                                 *****************

           --- An Ab Initio, DFT and Semiempirical electronic structure package ---

                  #######################################################
                  #                        -***-                        #
                  #          Department of theory and spectroscopy      #
                  #               Directorship: Frank Neese             #
                  #        Max Planck Institute fuer Kohlenforschung    #
                  #                Kaiser Wilhelm Platz 1               #
                  #                 D-45470 Muelheim/Ruhr               #
                  #                      Germany                        #
                  #                                                     #
                  #                  All rights reserved                #
                  #                        -***-                        #
                  #######################################################


                         Program Version 4.2.0 -  RELEASE  -


 With contributions from (in alphabetic order):
   Daniel Aravena         : Magnetic Suceptibility
   Michael Atanasov       : Ab Initio Ligand Field Theory (pilot matlab implementation)
   Alexander A. Auer      : GIAO ZORA, VPT2
   Ute Becker             : Parallelization
   Giovanni Bistoni       : ED, misc. LED, open-shell LED, HFLED
   Martin Brehm           : Molecular dynamics
   Dmytro Bykov           : SCF Hessian
   Vijay G. Chilkuri      : MRCI spin determinant printing, contributions to CSF-ICE
   Dipayan Datta          : RHF DLPNO-CCSD density
   Achintya Kumar Dutta   : EOM-CC, STEOM-CC
   Dmitry Ganyushin       : Spin-Orbit,Spin-Spin,Magnetic field MRCI
   Miquel Garcia          : C-PCM Hessian, Gaussian charge scheme
   Yang Guo               : DLPNO-NEVPT2, CIM, IAO-localization
   Andreas Hansen         : Spin unrestricted coupled pair/coupled cluster methods
   Benjamin Helmich-Paris : CASSCF linear response (MC-RPA)
   Lee Huntington         : MR-EOM, pCC
   Robert Izsak           : Overlap fitted RIJCOSX, COSX-SCS-MP3, EOM
   Christian Kollmar      : KDIIS, OOCD, Brueckner-CCSD(T), CCSD density
   Simone Kossmann        : Meta GGA functionals, TD-DFT gradient, OOMP2, MP2 Hessian
   Martin Krupicka        : AUTO-CI
   Lucas Lang             : DCDCAS
   Dagmar Lenk            : GEPOL surface, SMD
   Dimitrios Liakos       : Extrapolation schemes; Compound Job, initial MDCI parallelization
   Dimitrios Manganas     : Further ROCIS development; embedding schemes
   Dimitrios Pantazis     : SARC Basis sets
   Taras Petrenko         : DFT Hessian,TD-DFT gradient, ASA, ECA, R-Raman, ABS, FL, XAS/XES, NRVS
   Peter Pinski           : DLPNO-MP2, DLPNO-MP2 Gradient
   Christoph Reimann      : Effective Core Potentials
   Marius Retegan         : Local ZFS, SOC
   Christoph Riplinger    : Optimizer, TS searches, QM/MM, DLPNO-CCSD(T), (RO)-DLPNO pert. Triples
   Tobias Risthaus        : Range-separated hybrids, TD-DFT gradient, RPA, STAB
   Michael Roemelt        : Original ROCIS implementation
   Masaaki Saitow         : Open-shell DLPNO-CCSD energy and density
   Barbara Sandhoefer     : DKH picture change effects
   Avijit Sen             : IP-ROCIS
   Kantharuban Sivalingam : CASSCF convergence, NEVPT2, FIC-MRCI
   Bernardo de Souza      : ESD, SOC TD-DFT
   Georgi Stoychev        : AutoAux, RI-MP2 NMR
   Willem Van den Heuvel  : Paramagnetic NMR
   Boris Wezisla          : Elementary symmetry handling
   Frank Wennmohs         : Technical directorship


 We gratefully acknowledge several colleagues who have allowed us to
 interface, adapt or use parts of their codes:
   Stefan Grimme, W. Hujo, H. Kruse,             : VdW corrections, initial TS optimization,
                  C. Bannwarth                     DFT functionals, gCP, sTDA/sTD-DF
   Ed Valeev, F. Pavosevic, A. Kumar             : LibInt (2-el integral package), F12 methods
   Garnet Chan, S. Sharma, J. Yang, R. Olivares  : DMRG
   Ulf Ekstrom                                   : XCFun DFT Library
   Mihaly Kallay                                 : mrcc  (arbitrary order and MRCC methods)
   Andreas Klamt, Michael Diedenhofen            : otool_cosmo (COSMO solvation model)
   Jiri Pittner, Ondrej Demel                    : Mk-CCSD
   Frank Weinhold                                : gennbo (NPA and NBO analysis)
   Christopher J. Cramer and Donald G. Truhlar   : smd solvation model
   Lars Goerigk                                  : TD-DFT with DH, B97 family of functionals
   V. Asgeirsson, H. Jonsson                     : NEB implementation
   FAccTs GmbH                                   : IRC, NEB, NEB-TS, Multilevel, MM, QM/MM, CI optimization
   S Lehtola, MJT Oliveira, MAL Marques          : LibXC Library


 Your calculation uses the libint2 library for the computation of 2-el integrals
 For citations please refer to: http://libint.valeyev.net

 Your ORCA version has been built with support for libXC version: 4.2.3
 For citations please refer to: https://tddft.org/programs/libxc/

 This ORCA versions uses:
   CBLAS   interface :  Fast vector & matrix operations
   LAPACKE interface :  Fast linear algebra routines
   SCALAPACK package :  Parallel linear algebra routines


Your calculation utilizes the atom-pairwise dispersion correction
with the Becke-Johnson damping scheme (D3BJ)
Cite in your paper:
S.Grimme, S.Ehrlich, L.Goerigk, J Comput Chem, (2011), 32, 1456–1465 
S.Grimme, J.Antony, S.Ehrlich and H.Krieg, J.Chem.Phys., 132, (2010), 154104 
   

----- Orbital basis set information -----
Your calculation utilizes the basis: aug-cc-pVTZ 
    H, B-Ne : Obtained from the ccRepo (grant-hill.group.shef.ac.uk/ccrepo) Feb. 2017
              R. A. Kendall, T. H. Dunning, Jr., R. J. Harrison, J. Chem. Phys. 96, 6796 (1992)
         He : Obtained from the ccRepo (grant-hill.group.shef.ac.uk/ccrepo) Feb. 2017
              D. E. Woon, T. H. Dunning, Jr., J. Chem. Phys. 100, 2975 (1994)
  Li-Be, Na : Obtained from the ccRepo (grant-hill.group.shef.ac.uk/ccrepo) Feb. 2017
              B. P. Prascher, D. E. Woon, K. A. Peterson, T. H. Dunning, Jr., A. K. Wilson, Theor. Chem. Acc. 128, 69 (2011)
         Mg : Obtained from the Peterson Research Group Website (tyr0.chem.wsu.edu/~kipeters) Feb. 2017
              B. P. Prascher, D. E. Woon, K. A. Peterson, T. H. Dunning, Jr., A. K. Wilson, Theor. Chem. Acc. 128, 69 (2011)
      Al-Ar : Obtained from the ccRepo (grant-hill.group.shef.ac.uk/ccrepo) Feb. 2017
              D. E. Woon, T. H. Dunning, Jr., J. Chem. Phys. 98, 1358 (1993)
      Sc-Zn : Obtained from the ccRepo (grant-hill.group.shef.ac.uk/ccrepo) Feb. 2017
              N. B. Balabanov, K. A. Peterson, J. Chem. Phys. 123, 064107 (2005)
              N. B. Balabanov, K. A. Peterson, J. Chem. Phys. 125, 074110 (2006)
      Ga-Kr : Obtained from the ccRepo (grant-hill.group.shef.ac.uk/ccrepo) Feb. 2017
              A. K. Wilson, D. E. Woon, K. A. Peterson, T. H. Dunning, Jr., J. Chem. Phys. 110, 7667 (1999)
     Ag, Au : Obtained from the Peterson Research Group Website (tyr0.chem.wsu.edu/~kipeters) Feb. 2017
              K. A. Peterson, C. Puzzarini, Theor. Chem. Acc. 114, 283 (2005)

----- AuxJ basis set information -----
Your calculation utilizes the auxiliary basis: def2/J
   F. Weigend, Phys. Chem. Chem. Phys. 8, 1057 (2006).

================================================================================
                                        WARNINGS
                       Please study these warnings very carefully!
================================================================================


WARNING: Geometry Optimization
  ===> : Switching off AutoStart
         For restart on a previous wavefunction, please use MOREAD

INFO   : the flag for use of LIBINT has been found!

================================================================================
                                       INPUT FILE
================================================================================
NAME = 50_CuF.in
|  1> #
|  2> # 50_CuF tpss/aug-cc-pvtz
|  3> #
|  4> ! tpss d3bj aug-cc-pvtz def2/j opt xyzfile
|  5> 
|  6> *xyz 0 1
|  7> Cu 0.0 0.0 0.0
|  8> F 0.0 0.0 2.0
|  9> *
| 10> 
| 11> %pal
| 12> nprocs 24
| 13> end
| 14> 
| 15> 
| 16>                          ****END OF INPUT****
================================================================================

                       *****************************
                       * Geometry Optimization Run *
                       *****************************

Geometry optimization settings:
Update method            Update   .... BFGS
Choice of coordinates    CoordSys .... Z-matrix Internals
Initial Hessian          InHess   .... Almoef's Model

Convergence Tolerances:
Energy Change            TolE     ....  5.0000e-06 Eh
Max. Gradient            TolMAXG  ....  3.0000e-04 Eh/bohr
RMS Gradient             TolRMSG  ....  1.0000e-04 Eh/bohr
Max. Displacement        TolMAXD  ....  4.0000e-03 bohr
RMS Displacement         TolRMSD  ....  2.0000e-03 bohr
Strict Convergence                ....  False
------------------------------------------------------------------------------
                        ORCA OPTIMIZATION COORDINATE SETUP
------------------------------------------------------------------------------

The optimization will be done in new redundant internal coordinates
Making redundant internal coordinates   ...  (new redundants) done
Evaluating the initial hessian          ...  (Almloef) done
Evaluating the coordinates              ...  done
Calculating the B-matrix                .... done
Calculating the G-matrix                .... done
Diagonalizing the G-matrix              .... done
The first mode is                       ....    0
The number of degrees of freedom        ....    1

    -----------------------------------------------------------------
                    Redundant Internal Coordinates


    -----------------------------------------------------------------
         Definition                    Initial Value    Approx d2E/dq
    -----------------------------------------------------------------
      1. B(F   1,Cu  0)                  2.0000         0.559597   
    -----------------------------------------------------------------

Number of atoms                         .... 2
Number of degrees of freedom            .... 1

         *************************************************************
         *                GEOMETRY OPTIMIZATION CYCLE   1            *
         *************************************************************
---------------------------------
CARTESIAN COORDINATES (ANGSTROEM)
---------------------------------
  Cu     0.000000    0.000000    0.000000
  F      0.000000    0.000000    2.000000

----------------------------
CARTESIAN COORDINATES (A.U.)
----------------------------
  NO LB      ZA    FRAG     MASS         X           Y           Z
   0 Cu   29.0000    0    63.550    0.000000    0.000000    0.000000
   1 F     9.0000    0    18.998    0.000000    0.000000    3.779452

--------------------------------
INTERNAL COORDINATES (ANGSTROEM)
--------------------------------
 Cu     0   0   0     0.000000000000     0.00000000     0.00000000
 F      1   0   0     2.000000000000     0.00000000     0.00000000

---------------------------
INTERNAL COORDINATES (A.U.)
---------------------------
 Cu     0   0   0     0.000000000000     0.00000000     0.00000000
 F      1   0   0     3.779452267843     0.00000000     0.00000000

---------------------
BASIS SET INFORMATION
---------------------
There are 2 groups of distinct atoms

 Group   1 Type Cu  : 116s77p23d3f2g contracted to 8s7p5d3f2g pattern {19191919191911/151515151511/77711/111/11}
 Group   2 Type F   : 19s6p3d2f contracted to 5s4p3d2f pattern {88111/3111/111/11}

Atom   0Cu   basis set group =>   1
Atom   1F    basis set group =>   2
---------------------------------
AUXILIARY/J BASIS SET INFORMATION
---------------------------------
There are 2 groups of distinct atoms

 Group   1 Type Cu  : 19s5p5d3f3g contracted to 8s5p4d3f3g pattern {121111111/11111/2111/111/111}
 Group   2 Type F   : 12s5p4d2f1g contracted to 6s4p3d1f1g pattern {711111/2111/211/2/1}

Atom   0Cu   basis set group =>   1
Atom   1F    basis set group =>   2


           ************************************************************
           *        Program running with 24 parallel MPI-processes    *
           *              working on a common directory               *
           ************************************************************
------------------------------------------------------------------------------
                           ORCA GTO INTEGRAL CALCULATION
                           -- RI-GTO INTEGRALS CHOSEN --
------------------------------------------------------------------------------

                         BASIS SET STATISTICS AND STARTUP INFO

Gaussian basis set:
 # of primitive gaussian shells          ...  251
 # of primitive gaussian functions       ...  567
 # of contracted shells                  ...   39
 # of contracted basis functions         ...  139
 Highest angular momentum                ...    4
 Maximum contraction depth               ...   19
Auxiliary gaussian basis set:
 # of primitive gaussian shells          ...   59
 # of primitive gaussian functions       ...  177
 # of contracted shells                  ...   38
 # of contracted aux-basis functions     ...  140
 Highest angular momentum                ...    4
 Maximum contraction depth               ...   12
Ratio of auxiliary to basis functions    ...  1.01
Integral package used                  ... LIBINT
 One Electron integrals                  ... done
 Ordering auxiliary basis shells         ... done
 Integral threshhold             Thresh  ...  2.500e-11
 Primitive cut-off               TCut    ...  2.500e-12
 Pre-screening matrix                    ... done
 Shell pair data                         ... 
 Ordering of the shell pairs             ... done (   0.000 sec) 780 of 780 pairs
 Determination of significant pairs      ... done (   0.000 sec)
 Creation of shell pair data             ... done (   0.001 sec)
 Storage of shell pair data              ... done (   0.048 sec)
 Shell pair data done in (   0.049 sec)
 Computing two index integrals           ... done
 Cholesky decomposition of the V-matrix  ... done


Timings:
 Total evaluation time                   ...   2.197 sec (  0.037 min)
 One electron matrix time                ...   0.036 sec (  0.001 min) =  1.6%
 Schwartz matrix evaluation time         ...   2.082 sec (  0.035 min) = 94.7%
 Two index repulsion integral time       ...   0.001 sec (  0.000 min) =  0.0%
 Cholesky decomposition of V             ...   0.001 sec (  0.000 min) =  0.0%
 Three index repulsion integral time     ...   0.000 sec (  0.000 min) =  0.0%



           ************************************************************
           *        Program running with 24 parallel MPI-processes    *
           *              working on a common directory               *
           ************************************************************
-------------------------------------------------------------------------------
                                 ORCA SCF
-------------------------------------------------------------------------------

------------
SCF SETTINGS
------------
Hamiltonian:
 Density Functional     Method          .... DFT(GTOs)
 Exchange Functional    Exchange        .... TPSS
 Correlation Functional Correlation     .... TPSS
 LDA part of GGA corr.  LDAOpt          .... PW91-LDA
 Gradients option       PostSCFGGA      .... off
   Density functional embedding theory  .... OFF
   NL short-range parameter             ....  5.000000
 RI-approximation to the Coulomb term is turned on
   Number of auxiliary basis functions  .... 140


General Settings:
 Integral files         IntName         .... 50_CuF
 Hartree-Fock type      HFTyp           .... RHF
 Total Charge           Charge          ....    0
 Multiplicity           Mult            ....    1
 Number of Electrons    NEL             ....   38
 Basis Dimension        Dim             ....  139
 Nuclear Repulsion      ENuc            ....     69.0576256832 Eh

Convergence Acceleration:
 DIIS                   CNVDIIS         .... on
   Start iteration      DIISMaxIt       ....    12
   Startup error        DIISStart       ....  0.200000
   # of expansion vecs  DIISMaxEq       ....     5
   Bias factor          DIISBfac        ....   1.050
   Max. coefficient     DIISMaxC        ....  10.000
 Newton-Raphson         CNVNR           .... off
 SOSCF                  CNVSOSCF        .... off
 Level Shifting         CNVShift        .... on
   Level shift para.    LevelShift      ....    0.2500
   Turn off err/grad.   ShiftErr        ....    0.0010
 Zerner damping         CNVZerner       .... off
 Static damping         CNVDamp         .... on
   Fraction old density DampFac         ....    0.7000
   Max. Damping (<1)    DampMax         ....    0.9800
   Min. Damping (>=0)   DampMin         ....    0.0000
   Turn off err/grad.   DampErr         ....    0.1000
 Fernandez-Rico         CNVRico         .... off

SCF Procedure:
 Maximum # iterations   MaxIter         ....   125
 SCF integral mode      SCFMode         .... Direct
   Integral package                     .... LIBINT
 Reset frequency        DirectResetFreq ....    20
 Integral Threshold     Thresh          ....  2.500e-11 Eh
 Primitive CutOff       TCut            ....  2.500e-12 Eh

Convergence Tolerance:
 Convergence Check Mode ConvCheckMode   .... Total+1el-Energy
 Convergence forced     ConvForced      .... 0
 Energy Change          TolE            ....  1.000e-08 Eh
 1-El. energy change                    ....  1.000e-05 Eh
 DIIS Error             TolErr          ....  5.000e-07


Diagonalization of the overlap matrix:
Smallest eigenvalue                        ... 5.367e-04
Time for diagonalization                   ...    0.005 sec
Threshold for overlap eigenvalues          ... 1.000e-08
Number of eigenvalues below threshold      ... 0
Time for construction of square roots      ...    0.003 sec
Total time needed                          ...    0.007 sec

-------------------
DFT GRID GENERATION
-------------------

General Integration Accuracy     IntAcc      ...  4.340
Radial Grid Type                 RadialGrid  ... Gauss-Chebyshev
Angular Grid (max. acc.)         AngularGrid ... Lebedev-110
Angular grid pruning method      GridPruning ... 3 (G Style)
Weight generation scheme         WeightScheme... Becke
Basis function cutoff            BFCut       ...    1.0000e-11
Integration weight cutoff        WCut        ...    1.0000e-14
Grids for H and He will be reduced by one unit

# of grid points (after initial pruning)     ...   4652 (   0.0 sec)
# of grid points (after weights+screening)   ...   4629 (   0.0 sec)
nearest neighbour list constructed           ...    0.0 sec
Grid point re-assignment to atoms done       ...    0.0 sec
Grid point division into batches done        ...    0.0 sec
Reduced shell lists constructed in    0.0 sec

Total number of grid points                  ...     4629
Total number of batches                      ...       74
Average number of points per batch           ...       62
Average number of grid points per atom       ...     2314
Average number of shells per batch           ...    19.60 (50.26%)
Average number of basis functions per batch  ...    53.20 (38.27%)
Average number of large shells per batch     ...    14.80 (75.51%)
Average number of large basis fcns per batch ...    39.60 (74.44%)
Maximum spatial batch extension              ...  17.39, 26.34, 14.81 au
Average spatial batch extension              ...   0.91,  1.20,  0.80 au

Time for grid setup =    0.026 sec

------------------------------
INITIAL GUESS: MODEL POTENTIAL
------------------------------
Loading Hartree-Fock densities                     ... done
Calculating cut-offs                               ... done
Setting up the integral package                    ... done
Initializing the effective Hamiltonian             ... done
Starting the Coulomb interaction                   ... done (   0.0 sec)
Reading the grid                                   ... done
Mapping shells                                     ... done
Starting the XC term evaluation                    ... done (   0.0 sec)
  promolecular density results
     # of electrons  =     38.000655153
     EX              =    -75.395151366
     EC              =     -1.644350342
     EX+EC           =    -77.039501708
Transforming the Hamiltonian                       ... done (   0.0 sec)
Diagonalizing the Hamiltonian                      ... done (   0.0 sec)
Back transforming the eigenvectors                 ... done (   0.0 sec)
Now organizing SCF variables                       ... done
                      ------------------
                      INITIAL GUESS DONE (   0.1 sec)
                      ------------------
--------------
SCF ITERATIONS
--------------
ITER       Energy         Delta-E        Max-DP      RMS-DP      [F,P]     Damp
               ***  Starting incremental Fock matrix formation  ***
  0  -1740.3453701285   0.000000000000 0.06135246  0.00191058  0.3071144 0.7000
  1  -1740.4133663582  -0.067996229709 0.03215991  0.00087762  0.0433590 0.7000
                               ***Turning on DIIS***
  2  -1740.4243819324  -0.011015574182 0.05384723  0.00127118  0.0662491 0.0000
  3  -1740.4706362789  -0.046254346526 0.02664683  0.00073256  0.0583320 0.0000
  4  -1740.4723345515  -0.001698272596 0.00872832  0.00027957  0.0573169 0.0000
  5  -1740.4745246206  -0.002190069122 0.00841565  0.00016150  0.0220265 0.0000
  6  -1740.4749805059  -0.000455885243 0.00266934  0.00005822  0.0073560 0.0000
  7  -1740.4750405919  -0.000060086002 0.00102951  0.00002094  0.0025152 0.0000
  8  -1740.4750496399  -0.000009047971 0.00137974  0.00002211  0.0009310 0.0000
  9  -1740.4750508726  -0.000001232711 0.00053003  0.00000705  0.0004940 0.0000
 10  -1740.4750511854  -0.000000312872 0.00030026  0.00000455  0.0004394 0.0000
 11  -1740.4750512781  -0.000000092632 0.00006505  0.00000092  0.0001064 0.0000
                 **** Energy Check signals convergence ****

               *****************************************************
               *                     SUCCESS                       *
               *           SCF CONVERGED AFTER  12 CYCLES          *
               *****************************************************

Setting up the final grid:

General Integration Accuracy     IntAcc      ...  4.670
Radial Grid Type                 RadialGrid  ... Gauss-Chebyshev
Angular Grid (max. acc.)         AngularGrid ... Lebedev-302
Angular grid pruning method      GridPruning ... 3 (G Style)
Weight generation scheme         WeightScheme... Becke
Basis function cutoff            BFCut       ...    1.0000e-11
Integration weight cutoff        WCut        ...    1.0000e-14
Grids for H and He will be reduced by one unit

# of grid points (after initial pruning)     ...  15828 (   0.0 sec)
# of grid points (after weights+screening)   ...  15786 (   0.0 sec)
nearest neighbour list constructed           ...    0.0 sec
Grid point re-assignment to atoms done       ...    0.0 sec
Grid point division into batches done        ...    0.1 sec
Reduced shell lists constructed in    0.1 sec

Total number of grid points                  ...    15786
Total number of batches                      ...      248
Average number of points per batch           ...       63
Average number of grid points per atom       ...     7893
Average number of shells per batch           ...    15.92 (40.81%)
Average number of basis functions per batch  ...    36.92 (26.56%)
Average number of large shells per batch     ...     8.08 (50.79%)
Average number of large basis fcns per batch ...    18.08 (48.98%)
Maximum spatial batch extension              ...  22.45, 25.48, 16.11 au
Average spatial batch extension              ...   0.80,  0.83,  0.62 au

Final grid set up in    0.1 sec
Final integration                            ... done (   0.0 sec)
Change in XC energy                          ...    -0.001253906
Integrated number of electrons               ...    38.000002534
Previous integrated no of electrons          ...    37.999681824

----------------
TOTAL SCF ENERGY
----------------

Total Energy       :        -1740.47630519 Eh          -47360.76804 eV

Components:
Nuclear Repulsion  :           69.05762568 Eh            1879.15353 eV
Electronic Energy  :        -1809.53393087 Eh          -49239.92157 eV
One Electron Energy:        -2564.76689189 Eh          -69790.85523 eV
Two Electron Energy:          755.23296102 Eh           20550.93366 eV

Virial components:
Potential Energy   :        -3478.06342755 Eh          -94642.91742 eV
Kinetic Energy     :         1737.58712236 Eh           47282.14938 eV
Virial Ratio       :            2.00166276


DFT components:
N(Alpha)           :       19.000001266952 electrons
N(Beta)            :       19.000001266952 electrons
N(Total)           :       38.000002533904 electrons
E(X)               :      -75.990434166760 Eh       
E(C)               :       -1.665056310516 Eh       
E(XC)              :      -77.655490477276 Eh       
DFET-embed. en.    :        0.000000000000 Eh       

---------------
SCF CONVERGENCE
---------------

  Last Energy change         ...   -2.9800e-09  Tolerance :   1.0000e-08
  Last MAX-Density change    ...    2.9024e-06  Tolerance :   1.0000e-07
  Last RMS-Density change    ...    7.5385e-08  Tolerance :   5.0000e-09
  Last DIIS Error            ...    3.8343e-06  Tolerance :   5.0000e-07

             **** THE GBW FILE WAS UPDATED (50_CuF.gbw) ****
             **** DENSITY FILE WAS UPDATED (50_CuF.scfp) ****
             **** ENERGY FILE WAS UPDATED (50_CuF.en.tmp) ****
             **** THE GBW FILE WAS UPDATED (50_CuF.gbw) ****
             **** DENSITY FILE WAS UPDATED (50_CuF.scfp) ****
----------------
ORBITAL ENERGIES
----------------

  NO   OCC          E(Eh)            E(eV) 
   0   2.0000    -322.109187     -8765.0366 
   1   2.0000     -38.390532     -1044.6595 
   2   2.0000     -33.608261      -914.5273 
   3   2.0000     -33.608261      -914.5273 
   4   2.0000     -33.607552      -914.5080 
   5   2.0000     -24.307205      -661.4327 
   6   2.0000      -4.174093      -113.5829 
   7   2.0000      -2.686781       -73.1110 
   8   2.0000      -2.685124       -73.0659 
   9   2.0000      -2.685124       -73.0659 
  10   2.0000      -0.962473       -26.1902 
  11   2.0000      -0.306444        -8.3388 
  12   2.0000      -0.267372        -7.2756 
  13   2.0000      -0.267372        -7.2756 
  14   2.0000      -0.235771        -6.4157 
  15   2.0000      -0.235684        -6.4133 
  16   2.0000      -0.222796        -6.0626 
  17   2.0000      -0.222796        -6.0626 
  18   2.0000      -0.221022        -6.0143 
  19   0.0000      -0.152765        -4.1570 
  20   0.0000      -0.022776        -0.6198 
  21   0.0000      -0.022776        -0.6198 
  22   0.0000       0.003791         0.1032 
  23   0.0000       0.014185         0.3860 
  24   0.0000       0.041193         1.1209 
  25   0.0000       0.041193         1.1209 
  26   0.0000       0.065743         1.7890 
  27   0.0000       0.124245         3.3809 
  28   0.0000       0.124473         3.3871 
  29   0.0000       0.124836         3.3970 
  30   0.0000       0.134895         3.6707 
  31   0.0000       0.143970         3.9176 
  32   0.0000       0.143970         3.9176 
  33   0.0000       0.208791         5.6815 
  34   0.0000       0.208791         5.6815 
  35   0.0000       0.226471         6.1626 
  36   0.0000       0.230255         6.2656 
  37   0.0000       0.230255         6.2656 
  38   0.0000       0.248695         6.7673 
  39   0.0000       0.438037        11.9196 
  40   0.0000       0.551976        15.0200 
  41   0.0000       0.552069        15.0226 
  42   0.0000       0.567190        15.4340 
  43   0.0000       0.567190        15.4340 
  44   0.0000       0.605837        16.4857 
  45   0.0000       0.674020        18.3410 
  46   0.0000       0.776777        21.1372 
  47   0.0000       0.777618        21.1600 
  48   0.0000       0.855001        23.2657 
  49   0.0000       0.902946        24.5704 
  50   0.0000       0.902946        24.5704 
  51   0.0000       0.941401        25.6168 
  52   0.0000       0.941401        25.6168 
  53   0.0000       1.021583        27.7987 
  54   0.0000       1.028409        27.9844 
  55   0.0000       1.028409        27.9844 
  56   0.0000       1.390032        37.8247 
  57   0.0000       1.390032        37.8247 
  58   0.0000       1.423253        38.7287 
  59   0.0000       1.425286        38.7840 
  60   0.0000       1.426136        38.8071 
  61   0.0000       1.568886        42.6915 
  62   0.0000       1.674918        45.5768 
  63   0.0000       1.674918        45.5768 
  64   0.0000       2.048247        55.7356 
  65   0.0000       2.075623        56.4806 
  66   0.0000       2.076328        56.4998 
  67   0.0000       2.079332        56.5815 
  68   0.0000       2.079332        56.5815 
  69   0.0000       2.234261        60.7973 
  70   0.0000       2.607460        70.9526 
  71   0.0000       2.610879        71.0456 
  72   0.0000       2.652611        72.1812 
  73   0.0000       2.652611        72.1812 
  74   0.0000       2.687122        73.1203 
  75   0.0000       2.687122        73.1203 
  76   0.0000       2.740250        74.5660 
  77   0.0000       2.747788        74.7711 
  78   0.0000       2.805360        76.3377 
  79   0.0000       3.071272        83.5735 
  80   0.0000       3.071272        83.5735 
  81   0.0000       3.366707        91.6128 
  82   0.0000       3.792094       103.1881 
  83   0.0000       4.177838       113.6847 
  84   0.0000       4.177838       113.6847 
  85   0.0000       4.287005       116.6553 
  86   0.0000       4.287005       116.6553 
  87   0.0000       4.324166       117.6665 
  88   0.0000       4.324200       117.6675 
  89   0.0000       4.451968       121.1442 
  90   0.0000       4.473867       121.7401 
  91   0.0000       4.473867       121.7401 
  92   0.0000       4.766527       129.7038 
  93   0.0000       4.793740       130.4443 
  94   0.0000       4.793740       130.4443 
  95   0.0000       5.186482       141.1314 
  96   0.0000       5.989864       162.9925 
  97   0.0000       5.989864       162.9925 
  98   0.0000       5.992092       163.0531 
  99   0.0000       5.992347       163.0601 
 100   0.0000       5.995457       163.1447 
 101   0.0000       5.996503       163.1731 
 102   0.0000       6.075169       165.3138 
 103   0.0000       6.075169       165.3138 
 104   0.0000       6.165438       167.7701 
 105   0.0000       7.806870       212.4357 
 106   0.0000       7.807265       212.4465 
 107   0.0000       7.826148       212.9603 
 108   0.0000       7.826148       212.9603 
 109   0.0000       8.053450       219.1455 
 110   0.0000       8.407472       228.7789 
 111   0.0000       8.407472       228.7789 
 112   0.0000       8.407597       228.7823 
 113   0.0000       8.440603       229.6805 
 114   0.0000       8.644613       235.2319 
 115   0.0000       8.644613       235.2319 
 116   0.0000       8.747012       238.0183 
 117   0.0000       8.749450       238.0846 
 118   0.0000       8.838572       240.5098 
 119   0.0000       8.838572       240.5098 
 120   0.0000       8.876936       241.5537 
 121   0.0000       9.018923       245.4174 
 122   0.0000      11.899728       323.8081 
 123   0.0000      13.871036       377.4501 
 124   0.0000      13.871036       377.4501 
 125   0.0000      13.888568       377.9272 
 126   0.0000      13.888654       377.9295 
 127   0.0000      13.970197       380.1484 
 128   0.0000      13.970197       380.1484 
 129   0.0000      14.052421       382.3858 
 130   0.0000      16.443324       447.4456 
 131   0.0000      16.443985       447.4636 
 132   0.0000      16.444112       447.4670 
 133   0.0000      16.444112       447.4670 
 134   0.0000      16.447583       447.5615 
 135   0.0000      16.447954       447.5716 
 136   0.0000      16.497194       448.9115 
 137   0.0000      16.497194       448.9115 
 138   0.0000      16.592199       451.4967 

                    ********************************
                    * MULLIKEN POPULATION ANALYSIS *
                    ********************************

-----------------------
MULLIKEN ATOMIC CHARGES
-----------------------
   0 Cu:    0.672434
   1 F :   -0.672434
Sum of atomic charges:    0.0000000

--------------------------------
MULLIKEN REDUCED ORBITAL CHARGES
--------------------------------
  0 Cus       :     6.354561  s :     6.354561
      pz      :     4.017657  p :    12.081107
      px      :     4.031725
      py      :     4.031725
      dz2     :     1.886925  d :     9.886532
      dxz     :     1.999925
      dyz     :     1.999925
      dx2y2   :     1.999877
      dxy     :     1.999879
      f0      :     0.002170  f :     0.005307
      f+1     :     0.001463
      f-1     :     0.001463
      f+2     :     0.000105
      f-2     :     0.000105
      f+3     :     0.000000
      f-3     :     0.000000
      g0      :     0.000037  g :     0.000059
      g+1     :     0.000011
      g-1     :     0.000011
      g+2     :     0.000000
      g-2     :     0.000000
      g+3     :     0.000000
      g-3     :     0.000000
      g+4     :     0.000000
      g-4     :     0.000000
  1 F s       :     4.012059  s :     4.012059
      pz      :     1.723205  p :     5.653040
      px      :     1.964917
      py      :     1.964917
      dz2     :     0.003086  d :     0.006395
      dxz     :     0.001662
      dyz     :     0.001662
      dx2y2   :    -0.000006
      dxy     :    -0.000007
      f0      :     0.000301  f :     0.000941
      f+1     :     0.000295
      f-1     :     0.000295
      f+2     :     0.000024
      f-2     :     0.000023
      f+3     :     0.000001
      f-3     :     0.000001


                     *******************************
                     * LOEWDIN POPULATION ANALYSIS *
                     *******************************

----------------------
LOEWDIN ATOMIC CHARGES
----------------------
   0 Cu:    0.435581
   1 F :   -0.435581

-------------------------------
LOEWDIN REDUCED ORBITAL CHARGES
-------------------------------
  0 Cus       :     6.358314  s :     6.358314
      pz      :     4.087980  p :    12.184100
      px      :     4.048060
      py      :     4.048060
      dz2     :     1.957029  d :     9.988016
      dxz     :     2.016350
      dyz     :     2.016350
      dx2y2   :     1.999142
      dxy     :     1.999144
      f0      :     0.019017  f :     0.033768
      f+1     :     0.007258
      f-1     :     0.007258
      f+2     :     0.000118
      f-2     :     0.000118
      f+3     :     0.000000
      f-3     :     0.000000
      g0      :     0.000128  g :     0.000221
      g+1     :     0.000047
      g-1     :     0.000047
      g+2     :     0.000000
      g-2     :     0.000000
      g+3     :     0.000000
      g-3     :     0.000000
      g+4     :     0.000000
      g-4     :     0.000000
  1 F s       :     3.824170  s :     3.824170
      pz      :     1.710722  p :     5.537298
      px      :     1.913288
      py      :     1.913288
      dz2     :     0.037112  d :     0.063126
      dxz     :     0.012411
      dyz     :     0.012411
      dx2y2   :     0.000597
      dxy     :     0.000595
      f0      :     0.005530  f :     0.010987
      f+1     :     0.002585
      f-1     :     0.002585
      f+2     :     0.000143
      f-2     :     0.000142
      f+3     :     0.000001
      f-3     :     0.000001


                      *****************************
                      * MAYER POPULATION ANALYSIS *
                      *****************************

  NA   - Mulliken gross atomic population
  ZA   - Total nuclear charge
  QA   - Mulliken gross atomic charge
  VA   - Mayer's total valence
  BVA  - Mayer's bonded valence
  FA   - Mayer's free valence

  ATOM       NA         ZA         QA         VA         BVA        FA
  0 Cu    28.3276    29.0000     0.6724     0.6145     0.6145    -0.0000
  1 F      9.6724     9.0000    -0.6724     0.6145     0.6145     0.0000

  Mayer bond orders larger than 0.100000
B(  0-Cu,  1-F ) :   0.6145 

-------
TIMINGS
-------

Total SCF time: 0 days 0 hours 0 min 2 sec 

Total time                  ....       2.511 sec
Sum of individual times     ....       2.394 sec  ( 95.3%)

Fock matrix formation       ....       2.080 sec  ( 82.8%)
  Split-RI-J                ....       1.620 sec  ( 77.9% of F)
  XC integration            ....       0.376 sec  ( 18.1% of F)
    Basis function eval.    ....       0.030 sec  (  7.9% of XC)
    Density eval.           ....       0.022 sec  (  5.8% of XC)
    XC-Functional eval.     ....       0.008 sec  (  2.1% of XC)
    XC-Potential eval.      ....       0.049 sec  ( 13.0% of XC)
Diagonalization             ....       0.035 sec  (  1.4%)
Density matrix formation    ....       0.005 sec  (  0.2%)
Population analysis         ....       0.004 sec  (  0.1%)
Initial guess               ....       0.122 sec  (  4.9%)
Orbital Transformation      ....       0.000 sec  (  0.0%)
Orbital Orthonormalization  ....       0.000 sec  (  0.0%)
DIIS solution               ....       0.017 sec  (  0.7%)
Grid generation             ....       0.132 sec  (  5.2%)


-------------------------------------------------------------------------------
                          DFT DISPERSION CORRECTION                            
                                                                               
                              DFTD3 V3.1  Rev 1                                
                          USING Becke-Johnson damping                          
-------------------------------------------------------------------------------
The TPSS functional is recognized
Active option DFTDOPT                   ...         4   

molecular C6(AA) [au] = 250.615497 


            DFT-D V3
 parameters
 s6 scaling factor         :     1.0000 
 a1 scaling factor         :     0.4535 
 s8 scaling factor         :     1.9435 
 a2 scaling factor         :     4.4752 
 ad hoc parameters k1-k3   :    16.0000     1.3333    -4.0000 

 Edisp/kcal,au: -0.306984097124  -0.000489210246 
 E6   /kcal   :  -0.127671158 
 E8   /kcal   :  -0.179312939 
 % E8         :  58.411149323 

-------------------------   ----------------
Dispersion correction           -0.000489210
-------------------------   ----------------


-------------------------   --------------------
FINAL SINGLE POINT ENERGY     -1740.476794396844
-------------------------   --------------------



           ************************************************************
           *        Program running with 24 parallel MPI-processes    *
           *              working on a common directory               *
           ************************************************************
------------------------------------------------------------------------------
                         ORCA SCF GRADIENT CALCULATION
------------------------------------------------------------------------------

Gradient of the Kohn-Sham DFT energy:
Kohn-Sham wavefunction type      ... RKS
Hartree-Fock exchange scaling    ...    0.000
Number of operators              ...    1
Number of atoms                  ...    2
Basis set dimensions             ...  139
Integral neglect threshold       ... 2.5e-11
Integral primitive cutoff        ... 2.5e-12

Nuclear repulsion gradient       ... done
One Electron Gradient            ... done
Pre-screening matrix             ... done
RI-J gradient                    ... done
Exchange-correlation gradient    ... done
Dispersion correction            ... done

------------------
CARTESIAN GRADIENT
------------------

   1   Cu  :   -0.000000001    0.000000000   -0.048166410
   2   F   :   -0.000000000   -0.000000000    0.049452622

Difference to translation invariance:
           :   -0.0000000014    0.0000000000    0.0012862124

Norm of the cartesian gradient     ...    0.0690330711
RMS gradient                       ...    0.0281826333
MAX gradient                       ...    0.0494526223

-------
TIMINGS
-------

Total SCF gradient time            ...        4.266 sec

One electron gradient       ....       0.057 sec  (  1.3%)
Prescreening matrices       ....       3.369 sec  ( 79.0%)
RI-J Coulomb gradient       ....       0.274 sec  (  6.4%)
XC gradient                 ....       0.026 sec  (  0.6%)
------------------------------------------------------------------------------
                         ORCA GEOMETRY RELAXATION STEP
------------------------------------------------------------------------------

Reading the OPT-File                    .... done
Getting information on internals        .... done
Copying old internal coords+grads       .... done
Making the new internal coordinates     .... (new redundants).... done
Validating the new internal coordinates .... (new redundants).... done
Calculating the B-matrix                .... done
Calculating the G,G- and P matrices     .... done
Transforming gradient to internals      .... done
Projecting the internal gradient        .... done
Number of atoms                         ....   2
Number of internal coordinates          ....   1
Current Energy                          .... -1740.476794397 Eh
Current gradient norm                   ....     0.069033071 Eh/bohr
Maximum allowed component of the step   ....  0.300
Current trust radius                    ....  0.300
Evaluating the initial hessian          ....  (Almloef) done
Projecting the Hessian                  .... done
Forming the augmented Hessian           .... done
Diagonalizing the augmented Hessian     .... done
Last element of RFO vector              ....  0.996273840
Lowest eigenvalues of augmented Hessian:
 -0.004225388
Length of the computed step             ....  0.086568940
The final length of the internal step   ....  0.086568940
Converting the step to cartesian space:
 Initial RMS(Int)=    0.0865689398
Transforming coordinates:
 Iter   0:  RMS(Cart)=    0.0249903004 RMS(Int)=    0.0865689398
 Iter   1:  RMS(Cart)=    0.0000000000 RMS(Int)=    0.0000000000
done
Storing new coordinates                 .... done

                                .--------------------.
          ----------------------|Geometry convergence|-------------------------
          Item                value                   Tolerance       Converged
          ---------------------------------------------------------------------
          RMS gradient        0.0488095162            0.0001000000      NO
          MAX gradient        0.0488095162            0.0003000000      NO
          RMS step            0.0865689398            0.0020000000      NO
          MAX step            0.0865689398            0.0040000000      NO
          ........................................................
          Max(Bonds)      0.0458      Max(Angles)    0.00
          Max(Dihed)        0.00      Max(Improp)    0.00
          ---------------------------------------------------------------------

The optimization has not yet converged - more geometry cycles are needed


    ---------------------------------------------------------------------------
                         Redundant Internal Coordinates
                            (Angstroem and degrees)

        Definition                    Value    dE/dq     Step     New-Value
    ----------------------------------------------------------------------------
     1. B(F   1,Cu  0)                2.0000  0.048810 -0.0458    1.9542   
    ----------------------------------------------------------------------------

         *************************************************************
         *                GEOMETRY OPTIMIZATION CYCLE   2            *
         *************************************************************
---------------------------------
CARTESIAN COORDINATES (ANGSTROEM)
---------------------------------
  Cu     0.000000    0.000000    0.022905
  F      0.000000    0.000000    1.977095

----------------------------
CARTESIAN COORDINATES (A.U.)
----------------------------
  NO LB      ZA    FRAG     MASS         X           Y           Z
   0 Cu   29.0000    0    63.550    0.000000    0.000000    0.043284
   1 F     9.0000    0    18.998    0.000000    0.000000    3.736168

--------------------------------
INTERNAL COORDINATES (ANGSTROEM)
--------------------------------
 Cu     0   0   0     0.000000000000     0.00000000     0.00000000
 F      1   0   0     1.954189690088     0.00000000     0.00000000

---------------------------
INTERNAL COORDINATES (A.U.)
---------------------------
 Cu     0   0   0     0.000000000000     0.00000000     0.00000000
 F      1   0   0     3.692883327999     0.00000000     0.00000000



           ************************************************************
           *        Program running with 24 parallel MPI-processes    *
           *              working on a common directory               *
           ************************************************************
 One Electron integrals                  ... done
 Pre-screening matrix                    ... done


           ************************************************************
           *        Program running with 24 parallel MPI-processes    *
           *              working on a common directory               *
           ************************************************************

Diagonalization of the overlap matrix:
Smallest eigenvalue                        ... 5.105e-04
Time for diagonalization                   ...    0.005 sec
Threshold for overlap eigenvalues          ... 1.000e-08
Number of eigenvalues below threshold      ... 0
Time for construction of square roots      ...    0.003 sec
Total time needed                          ...    0.008 sec

-------------------
DFT GRID GENERATION
-------------------

General Integration Accuracy     IntAcc      ...  4.340
Radial Grid Type                 RadialGrid  ... Gauss-Chebyshev
Angular Grid (max. acc.)         AngularGrid ... Lebedev-110
Angular grid pruning method      GridPruning ... 3 (G Style)
Weight generation scheme         WeightScheme... Becke
Basis function cutoff            BFCut       ...    1.0000e-11
Integration weight cutoff        WCut        ...    1.0000e-14
Grids for H and He will be reduced by one unit

# of grid points (after initial pruning)     ...   4652 (   0.0 sec)
# of grid points (after weights+screening)   ...   4628 (   0.0 sec)
nearest neighbour list constructed           ...    0.0 sec
Grid point re-assignment to atoms done       ...    0.0 sec
Grid point division into batches done        ...    0.0 sec
Reduced shell lists constructed in    0.0 sec

Total number of grid points                  ...     4628
Total number of batches                      ...       74
Average number of points per batch           ...       62
Average number of grid points per atom       ...     2314
Average number of shells per batch           ...    19.60 (50.26%)
Average number of basis functions per batch  ...    53.20 (38.27%)
Average number of large shells per batch     ...    14.80 (75.51%)
Average number of large basis fcns per batch ...    39.60 (74.44%)
Maximum spatial batch extension              ...  17.39, 26.34, 14.81 au
Average spatial batch extension              ...   0.91,  1.20,  0.80 au

Time for grid setup =    0.020 sec

--------------
SCF ITERATIONS
--------------
ITER       Energy         Delta-E        Max-DP      RMS-DP      [F,P]     Damp
               ***  Starting incremental Fock matrix formation  ***
  0  -1740.4790203675   0.000000000000 0.00256810  0.00005490  0.0067608 0.7000
  1  -1740.4790685590  -0.000048191524 0.00254200  0.00004862  0.0025659 0.7000
                               ***Turning on DIIS***
  2  -1740.4790948969  -0.000026337918 0.00678369  0.00011910  0.0018075 0.0000
  3  -1740.4791607978  -0.000065900855 0.00531331  0.00008020  0.0009928 0.0000
  4  -1740.4791511120   0.000009685744 0.00040185  0.00001104  0.0030856 0.0000
  5  -1740.4791609852  -0.000009873176 0.00032572  0.00000915  0.0013588 0.0000
  6  -1740.4791640032  -0.000003017965 0.00181326  0.00002610  0.0008545 0.0000
  7  -1740.4791648593  -0.000000856132 0.00052520  0.00000697  0.0009286 0.0000
  8  -1740.4791654417  -0.000000582371 0.00011500  0.00000289  0.0003736 0.0000
  9  -1740.4791657111  -0.000000269446 0.00002191  0.00000040  0.0000298 0.0000
 10  -1740.4791657118  -0.000000000715 0.00000815  0.00000012  0.0000141 0.0000
 11  -1740.4791656826   0.000000029245 0.00000169  0.00000003  0.0000012 0.0000
                            ***DIIS convergence achieved***

               *****************************************************
               *                     SUCCESS                       *
               *           SCF CONVERGED AFTER  12 CYCLES          *
               *****************************************************

Setting up the final grid:

General Integration Accuracy     IntAcc      ...  4.670
Radial Grid Type                 RadialGrid  ... Gauss-Chebyshev
Angular Grid (max. acc.)         AngularGrid ... Lebedev-302
Angular grid pruning method      GridPruning ... 3 (G Style)
Weight generation scheme         WeightScheme... Becke
Basis function cutoff            BFCut       ...    1.0000e-11
Integration weight cutoff        WCut        ...    1.0000e-14
Grids for H and He will be reduced by one unit

# of grid points (after initial pruning)     ...  15828 (   0.0 sec)
# of grid points (after weights+screening)   ...  15786 (   0.0 sec)
nearest neighbour list constructed           ...    0.0 sec
Grid point re-assignment to atoms done       ...    0.0 sec
Grid point division into batches done        ...    0.1 sec
Reduced shell lists constructed in    0.1 sec

Total number of grid points                  ...    15786
Total number of batches                      ...      248
Average number of points per batch           ...       63
Average number of grid points per atom       ...     7893
Average number of shells per batch           ...    15.92 (40.81%)
Average number of basis functions per batch  ...    36.92 (26.56%)
Average number of large shells per batch     ...     8.08 (50.79%)
Average number of large basis fcns per batch ...    18.08 (48.98%)
Maximum spatial batch extension              ...  22.45, 25.48, 16.62 au
Average spatial batch extension              ...   0.80,  0.80,  0.63 au

Final grid set up in    0.1 sec
Final integration                            ... done (   0.1 sec)
Change in XC energy                          ...    -0.001222733
Integrated number of electrons               ...    38.000017702
Previous integrated no of electrons          ...    37.999826737
Total Energy       :        -1740.48038844 Eh          -47360.87915 eV
  Last Energy change         ...   -2.7322e-08  Tolerance :   1.0000e-08
  Last MAX-Density change    ...    4.3053e-07  Tolerance :   1.0000e-07
             **** THE GBW FILE WAS UPDATED (50_CuF.gbw) ****
             **** DENSITY FILE WAS UPDATED (50_CuF.scfp) ****
             **** ENERGY FILE WAS UPDATED (50_CuF.en.tmp) ****
             **** THE GBW FILE WAS UPDATED (50_CuF.gbw) ****
             **** DENSITY FILE WAS UPDATED (50_CuF.scfp) ****
Total SCF time: 0 days 0 hours 0 min 2 sec 


-------------------------------------------------------------------------------
                          DFT DISPERSION CORRECTION                            
                                                                               
                              DFTD3 V3.1  Rev 1                                
                          USING Becke-Johnson damping                          
-------------------------------------------------------------------------------
-------------------------   ----------------
Dispersion correction           -0.000485614
-------------------------   ----------------


-------------------------   --------------------
FINAL SINGLE POINT ENERGY     -1740.480874057062
-------------------------   --------------------



           ************************************************************
           *        Program running with 24 parallel MPI-processes    *
           *              working on a common directory               *
           ************************************************************
------------------------------------------------------------------------------
                         ORCA SCF GRADIENT CALCULATION
------------------------------------------------------------------------------

Gradient of the Kohn-Sham DFT energy:
Kohn-Sham wavefunction type      ... RKS
Hartree-Fock exchange scaling    ...    0.000
Number of operators              ...    1
Number of atoms                  ...    2
Basis set dimensions             ...  139
Integral neglect threshold       ... 2.5e-11
Integral primitive cutoff        ... 2.5e-12

Nuclear repulsion gradient       ... done
One Electron Gradient            ... done
Pre-screening matrix             ... done
RI-J gradient                    ... done
Exchange-correlation gradient    ... done
Dispersion correction            ... done

------------------
CARTESIAN GRADIENT
------------------

   1   Cu  :    0.000000002    0.000000002   -0.044066386
   2   F   :    0.000000000   -0.000000002    0.045494967

Difference to translation invariance:
           :    0.0000000026    0.0000000002    0.0014285816

Norm of the cartesian gradient     ...    0.0633374962
RMS gradient                       ...    0.0258574246
MAX gradient                       ...    0.0454949675

-------
TIMINGS
-------

Total SCF gradient time            ...        4.300 sec

One electron gradient       ....       0.068 sec  (  1.6%)
Prescreening matrices       ....       3.396 sec  ( 79.0%)
RI-J Coulomb gradient       ....       0.273 sec  (  6.3%)
XC gradient                 ....       0.026 sec  (  0.6%)
------------------------------------------------------------------------------
                         ORCA GEOMETRY RELAXATION STEP
------------------------------------------------------------------------------

Reading the OPT-File                    .... done
Getting information on internals        .... done
Copying old internal coords+grads       .... done
Making the new internal coordinates     .... (new redundants).... done
Validating the new internal coordinates .... (new redundants).... done
Calculating the B-matrix                .... done
Calculating the G,G- and P matrices     .... done
Transforming gradient to internals      .... done
Projecting the internal gradient        .... done
Number of atoms                         ....   2
Number of internal coordinates          ....   1
Current Energy                          .... -1740.480874057 Eh
Current gradient norm                   ....     0.063337496 Eh/bohr
Maximum allowed component of the step   ....  0.300
Current trust radius                    ....  0.300
Updating the Hessian (BFGS)             .... done
Forming the augmented Hessian           .... done
Diagonalizing the augmented Hessian     .... done
Last element of RFO vector              ....  0.854721238
Lowest eigenvalues of augmented Hessian:
 -0.027196095
Length of the computed step             ....  0.607317635
Warning: the length of the step is outside the trust region - taking restricted step instead
The input lambda is                     ....    -0.027196
   iter:   1  x=   -0.055068  g=   10.004307 f(x)=     0.278835
   iter:   2  x=   -0.082331  g=    3.823358 f(x)=     0.104239
   iter:   3  x=   -0.098739  g=    1.873921 f(x)=     0.030747
   iter:   4  x=   -0.102571  g=    1.308011 f(x)=     0.005013
   iter:   5  x=   -0.102730  g=    1.209730 f(x)=     0.000192
   iter:   6  x=   -0.102730  g=    1.205883 f(x)=     0.000000
   iter:   7  x=   -0.102730  g=    1.205877 f(x)=     0.000000
   iter:   8  x=   -0.102730  g=    1.205877 f(x)=    -0.000000
The output lambda is                    ....    -0.102730 (8 iterations)
The final length of the internal step   ....  0.300000000
Converting the step to cartesian space:
 Initial RMS(Int)=    0.3000000000
Transforming coordinates:
 Iter   0:  RMS(Cart)=    0.0866025404 RMS(Int)=    0.3000000000
 Iter   1:  RMS(Cart)=    0.0000000000 RMS(Int)=    0.0000000000
done
Storing new coordinates                 .... done

                                .--------------------.
          ----------------------|Geometry convergence|-------------------------
          Item                value                   Tolerance       Converged
          ---------------------------------------------------------------------
          Energy change      -0.0040796602            0.0000050000      NO
          RMS gradient        0.0447806767            0.0001000000      NO
          MAX gradient        0.0447806767            0.0003000000      NO
          RMS step            0.3000000000            0.0020000000      NO
          MAX step            0.3000000000            0.0040000000      NO
          ........................................................
          Max(Bonds)      0.1588      Max(Angles)    0.00
          Max(Dihed)        0.00      Max(Improp)    0.00
          ---------------------------------------------------------------------

The optimization has not yet converged - more geometry cycles are needed


    ---------------------------------------------------------------------------
                         Redundant Internal Coordinates
                            (Angstroem and degrees)

        Definition                    Value    dE/dq     Step     New-Value
    ----------------------------------------------------------------------------
     1. B(F   1,Cu  0)                1.9542  0.044781 -0.1588    1.7954   
    ----------------------------------------------------------------------------

         *************************************************************
         *                GEOMETRY OPTIMIZATION CYCLE   3            *
         *************************************************************
---------------------------------
CARTESIAN COORDINATES (ANGSTROEM)
---------------------------------
  Cu     0.000000    0.000000    0.102282
  F      0.000000    0.000000    1.897718

----------------------------
CARTESIAN COORDINATES (A.U.)
----------------------------
  NO LB      ZA    FRAG     MASS         X           Y           Z
   0 Cu   29.0000    0    63.550    0.000000    0.000000    0.193284
   1 F     9.0000    0    18.998    0.000000    0.000000    3.586168

--------------------------------
INTERNAL COORDINATES (ANGSTROEM)
--------------------------------
 Cu     0   0   0     0.000000000000     0.00000000     0.00000000
 F      1   0   0     1.795436527598     0.00000000     0.00000000

---------------------------
INTERNAL COORDINATES (A.U.)
---------------------------
 Cu     0   0   0     0.000000000000     0.00000000     0.00000000
 F      1   0   0     3.392883327999     0.00000000     0.00000000



           ************************************************************
           *        Program running with 24 parallel MPI-processes    *
           *              working on a common directory               *
           ************************************************************
 One Electron integrals                  ... done
 Pre-screening matrix                    ... done


           ************************************************************
           *        Program running with 24 parallel MPI-processes    *
           *              working on a common directory               *
           ************************************************************

Diagonalization of the overlap matrix:
Smallest eigenvalue                        ... 4.061e-04
Time for diagonalization                   ...    0.005 sec
Threshold for overlap eigenvalues          ... 1.000e-08
Number of eigenvalues below threshold      ... 0
Time for construction of square roots      ...    0.003 sec
Total time needed                          ...    0.008 sec

-------------------
DFT GRID GENERATION
-------------------

General Integration Accuracy     IntAcc      ...  4.340
Radial Grid Type                 RadialGrid  ... Gauss-Chebyshev
Angular Grid (max. acc.)         AngularGrid ... Lebedev-110
Angular grid pruning method      GridPruning ... 3 (G Style)
Weight generation scheme         WeightScheme... Becke
Basis function cutoff            BFCut       ...    1.0000e-11
Integration weight cutoff        WCut        ...    1.0000e-14
Grids for H and He will be reduced by one unit

# of grid points (after initial pruning)     ...   4652 (   0.0 sec)
# of grid points (after weights+screening)   ...   4627 (   0.0 sec)
nearest neighbour list constructed           ...    0.0 sec
Grid point re-assignment to atoms done       ...    0.0 sec
Grid point division into batches done        ...    0.0 sec
Reduced shell lists constructed in    0.0 sec

Total number of grid points                  ...     4627
Total number of batches                      ...       74
Average number of points per batch           ...       62
Average number of grid points per atom       ...     2314
Average number of shells per batch           ...    19.60 (50.26%)
Average number of basis functions per batch  ...    53.20 (38.27%)
Average number of large shells per batch     ...    14.80 (75.51%)
Average number of large basis fcns per batch ...    39.60 (74.44%)
Maximum spatial batch extension              ...  17.39, 26.34, 14.81 au
Average spatial batch extension              ...   0.91,  1.20,  0.80 au

Time for grid setup =    0.020 sec

--------------
SCF ITERATIONS
--------------
ITER       Energy         Delta-E        Max-DP      RMS-DP      [F,P]     Damp
               ***  Starting incremental Fock matrix formation  ***
  0  -1740.4867534102   0.000000000000 0.01100844  0.00020815  0.0257220 0.7000
  1  -1740.4874901715  -0.000736761333 0.01082344  0.00018801  0.0109326 0.7000
                               ***Turning on DIIS***
  2  -1740.4879216731  -0.000431501550 0.02817471  0.00046891  0.0075627 0.0000
  3  -1740.4889883815  -0.001066708422 0.00647441  0.00011285  0.0038374 0.0000
  4  -1740.4890143409  -0.000025959381 0.00233187  0.00004377  0.0049215 0.0000
  5  -1740.4890398358  -0.000025494944 0.00274817  0.00003270  0.0011927 0.0000
  6  -1740.4890437915  -0.000003955685 0.00122251  0.00001763  0.0014955 0.0000
  7  -1740.4890475433  -0.000003751785 0.00287027  0.00004034  0.0005474 0.0000
  8  -1740.4890492570  -0.000001713740 0.00074441  0.00000999  0.0006101 0.0000
  9  -1740.4890496216  -0.000000364529 0.00031815  0.00000384  0.0002836 0.0000
 10  -1740.4890498515  -0.000000229961 0.00003890  0.00000074  0.0000911 0.0000
 11  -1740.4890499364  -0.000000084916 0.00002015  0.00000029  0.0000115 0.0000
 12  -1740.4890499671  -0.000000030639 0.00001136  0.00000016  0.0000203 0.0000
 13  -1740.4890498947   0.000000072373 0.00000114  0.00000002  0.0000012 0.0000
                            ***DIIS convergence achieved***

               *****************************************************
               *                     SUCCESS                       *
               *           SCF CONVERGED AFTER  14 CYCLES          *
               *****************************************************

Setting up the final grid:

General Integration Accuracy     IntAcc      ...  4.670
Radial Grid Type                 RadialGrid  ... Gauss-Chebyshev
Angular Grid (max. acc.)         AngularGrid ... Lebedev-302
Angular grid pruning method      GridPruning ... 3 (G Style)
Weight generation scheme         WeightScheme... Becke
Basis function cutoff            BFCut       ...    1.0000e-11
Integration weight cutoff        WCut        ...    1.0000e-14
Grids for H and He will be reduced by one unit

# of grid points (after initial pruning)     ...  15828 (   0.0 sec)
# of grid points (after weights+screening)   ...  15780 (   0.0 sec)
nearest neighbour list constructed           ...    0.0 sec
Grid point re-assignment to atoms done       ...    0.0 sec
Grid point division into batches done        ...    0.1 sec
Reduced shell lists constructed in    0.1 sec

Total number of grid points                  ...    15780
Total number of batches                      ...      247
Average number of points per batch           ...       63
Average number of grid points per atom       ...     7890
Average number of shells per batch           ...    15.92 (40.81%)
Average number of basis functions per batch  ...    36.92 (26.56%)
Average number of large shells per batch     ...     8.58 (53.93%)
Average number of large basis fcns per batch ...    18.92 (51.24%)
Maximum spatial batch extension              ...  22.45, 22.17, 15.93 au
Average spatial batch extension              ...   0.81,  0.80,  0.61 au

Final grid set up in    0.1 sec
Final integration                            ... done (   0.1 sec)
Change in XC energy                          ...    -0.000969490
Integrated number of electrons               ...    38.000030781
Previous integrated no of electrons          ...    38.000516141
Total Energy       :        -1740.49001940 Eh          -47361.14122 eV
  Last Energy change         ...   -2.0046e-08  Tolerance :   1.0000e-08
  Last MAX-Density change    ...    3.7309e-07  Tolerance :   1.0000e-07
             **** THE GBW FILE WAS UPDATED (50_CuF.gbw) ****
             **** DENSITY FILE WAS UPDATED (50_CuF.scfp) ****
             **** ENERGY FILE WAS UPDATED (50_CuF.en.tmp) ****
             **** THE GBW FILE WAS UPDATED (50_CuF.gbw) ****
             **** DENSITY FILE WAS UPDATED (50_CuF.scfp) ****
Total SCF time: 0 days 0 hours 0 min 2 sec 


-------------------------------------------------------------------------------
                          DFT DISPERSION CORRECTION                            
                                                                               
                              DFTD3 V3.1  Rev 1                                
                          USING Becke-Johnson damping                          
-------------------------------------------------------------------------------
-------------------------   ----------------
Dispersion correction           -0.000482779
-------------------------   ----------------


-------------------------   --------------------
FINAL SINGLE POINT ENERGY     -1740.490502183590
-------------------------   --------------------



           ************************************************************
           *        Program running with 24 parallel MPI-processes    *
           *              working on a common directory               *
           ************************************************************
------------------------------------------------------------------------------
                         ORCA SCF GRADIENT CALCULATION
------------------------------------------------------------------------------

Gradient of the Kohn-Sham DFT energy:
Kohn-Sham wavefunction type      ... RKS
Hartree-Fock exchange scaling    ...    0.000
Number of operators              ...    1
Number of atoms                  ...    2
Basis set dimensions             ...  139
Integral neglect threshold       ... 2.5e-11
Integral primitive cutoff        ... 2.5e-12

Nuclear repulsion gradient       ... done
One Electron Gradient            ... done
Pre-screening matrix             ... done
RI-J gradient                    ... done
Exchange-correlation gradient    ... done
Dispersion correction            ... done

------------------
CARTESIAN GRADIENT
------------------

   1   Cu  :   -0.000000001    0.000000001   -0.013073531
   2   F   :    0.000000002    0.000000000    0.014717972

Difference to translation invariance:
           :    0.0000000004    0.0000000011    0.0016444416

Norm of the cartesian gradient     ...    0.0196859316
RMS gradient                       ...    0.0080367479
MAX gradient                       ...    0.0147179721

-------
TIMINGS
-------

Total SCF gradient time            ...        4.297 sec

One electron gradient       ....       0.053 sec  (  1.2%)
Prescreening matrices       ....       3.401 sec  ( 79.2%)
RI-J Coulomb gradient       ....       0.323 sec  (  7.5%)
XC gradient                 ....       0.027 sec  (  0.6%)
------------------------------------------------------------------------------
                         ORCA GEOMETRY RELAXATION STEP
------------------------------------------------------------------------------

Reading the OPT-File                    .... done
Getting information on internals        .... done
Copying old internal coords+grads       .... done
Making the new internal coordinates     .... (new redundants).... done
Validating the new internal coordinates .... (new redundants).... done
Calculating the B-matrix                .... done
Calculating the G,G- and P matrices     .... done
Transforming gradient to internals      .... done
Projecting the internal gradient        .... done
Number of atoms                         ....   2
Number of internal coordinates          ....   1
Current Energy                          .... -1740.490502184 Eh
Current gradient norm                   ....     0.019685932 Eh/bohr
Maximum allowed component of the step   ....  0.300
Current trust radius                    ....  0.300
Updating the Hessian (BFGS)             .... done
Forming the augmented Hessian           .... done
Diagonalizing the augmented Hessian     .... done
Last element of RFO vector              ....  0.991322530
Lowest eigenvalues of augmented Hessian:
 -0.001842614
Length of the computed step             ....  0.132602707
The final length of the internal step   ....  0.132602707
Converting the step to cartesian space:
 Initial RMS(Int)=    0.1326027072
Transforming coordinates:
 Iter   0:  RMS(Cart)=    0.0382791043 RMS(Int)=    0.1326027072
 Iter   1:  RMS(Cart)=    0.0000000000 RMS(Int)=    0.0000000000
done
Storing new coordinates                 .... done

                                .--------------------.
          ----------------------|Geometry convergence|-------------------------
          Item                value                   Tolerance       Converged
          ---------------------------------------------------------------------
          Energy change      -0.0096281265            0.0000050000      NO
          RMS gradient        0.0138957513            0.0001000000      NO
          MAX gradient        0.0138957513            0.0003000000      NO
          RMS step            0.1326027072            0.0020000000      NO
          MAX step            0.1326027072            0.0040000000      NO
          ........................................................
          Max(Bonds)      0.0702      Max(Angles)    0.00
          Max(Dihed)        0.00      Max(Improp)    0.00
          ---------------------------------------------------------------------

The optimization has not yet converged - more geometry cycles are needed


    ---------------------------------------------------------------------------
                         Redundant Internal Coordinates
                            (Angstroem and degrees)

        Definition                    Value    dE/dq     Step     New-Value
    ----------------------------------------------------------------------------
     1. B(F   1,Cu  0)                1.7954  0.013896 -0.0702    1.7253   
    ----------------------------------------------------------------------------

         *************************************************************
         *                GEOMETRY OPTIMIZATION CYCLE   4            *
         *************************************************************
---------------------------------
CARTESIAN COORDINATES (ANGSTROEM)
---------------------------------
  Cu     0.000000    0.000000    0.137367
  F      0.000000    0.000000    1.862633

----------------------------
CARTESIAN COORDINATES (A.U.)
----------------------------
  NO LB      ZA    FRAG     MASS         X           Y           Z
   0 Cu   29.0000    0    63.550    0.000000    0.000000    0.259586
   1 F     9.0000    0    18.998    0.000000    0.000000    3.519866

--------------------------------
INTERNAL COORDINATES (ANGSTROEM)
--------------------------------
 Cu     0   0   0     0.000000000000     0.00000000     0.00000000
 F      1   0   0     1.725266197188     0.00000000     0.00000000

---------------------------
INTERNAL COORDINATES (A.U.)
---------------------------
 Cu     0   0   0     0.000000000000     0.00000000     0.00000000
 F      1   0   0     3.260280620796     0.00000000     0.00000000



           ************************************************************
           *        Program running with 24 parallel MPI-processes    *
           *              working on a common directory               *
           ************************************************************
 One Electron integrals                  ... done
 Pre-screening matrix                    ... done


           ************************************************************
           *        Program running with 24 parallel MPI-processes    *
           *              working on a common directory               *
           ************************************************************

Diagonalization of the overlap matrix:
Smallest eigenvalue                        ... 3.574e-04
Time for diagonalization                   ...    0.006 sec
Threshold for overlap eigenvalues          ... 1.000e-08
Number of eigenvalues below threshold      ... 0
Time for construction of square roots      ...    0.002 sec
Total time needed                          ...    0.009 sec

-------------------
DFT GRID GENERATION
-------------------

General Integration Accuracy     IntAcc      ...  4.340
Radial Grid Type                 RadialGrid  ... Gauss-Chebyshev
Angular Grid (max. acc.)         AngularGrid ... Lebedev-110
Angular grid pruning method      GridPruning ... 3 (G Style)
Weight generation scheme         WeightScheme... Becke
Basis function cutoff            BFCut       ...    1.0000e-11
Integration weight cutoff        WCut        ...    1.0000e-14
Grids for H and He will be reduced by one unit

# of grid points (after initial pruning)     ...   4652 (   0.0 sec)
# of grid points (after weights+screening)   ...   4627 (   0.0 sec)
nearest neighbour list constructed           ...    0.0 sec
Grid point re-assignment to atoms done       ...    0.0 sec
Grid point division into batches done        ...    0.0 sec
Reduced shell lists constructed in    0.0 sec

Total number of grid points                  ...     4627
Total number of batches                      ...       73
Average number of points per batch           ...       63
Average number of grid points per atom       ...     2314
Average number of shells per batch           ...    20.80 (53.33%)
Average number of basis functions per batch  ...    59.20 (42.59%)
Average number of large shells per batch     ...    15.40 (74.04%)
Average number of large basis fcns per batch ...    42.60 (71.96%)
Maximum spatial batch extension              ...  17.92, 26.34, 14.62 au
Average spatial batch extension              ...   0.93,  1.22,  0.80 au

Time for grid setup =    0.020 sec

--------------
SCF ITERATIONS
--------------
ITER       Energy         Delta-E        Max-DP      RMS-DP      [F,P]     Damp
               ***  Starting incremental Fock matrix formation  ***
  0  -1740.4887568930   0.000000000000 0.00574435  0.00010055  0.0133532 0.7000
  1  -1740.4889493986  -0.000192505528 0.00560796  0.00009275  0.0061380 0.7000
                               ***Turning on DIIS***
  2  -1740.4890672099  -0.000117811323 0.01435876  0.00023632  0.0041684 0.0000
  3  -1740.4893575309  -0.000290321035 0.00333519  0.00005625  0.0019683 0.0000
  4  -1740.4893627729  -0.000005241992 0.00089626  0.00002099  0.0026989 0.0000
  5  -1740.4893687092  -0.000005936289 0.00377821  0.00004800  0.0006214 0.0000
  6  -1740.4893679963   0.000000712934 0.00036823  0.00000615  0.0018244 0.0000
  7  -1740.4893698047  -0.000001808380 0.00139984  0.00001649  0.0008626 0.0000
  8  -1740.4893702617  -0.000000457091 0.00064275  0.00000815  0.0005160 0.0000
  9  -1740.4893708452  -0.000000583488 0.00019712  0.00000304  0.0002322 0.0000
 10  -1740.4893708090   0.000000036273 0.00001203  0.00000033  0.0000467 0.0000
 11  -1740.4893708647  -0.000000055720 0.00000648  0.00000010  0.0000041 0.0000
 12  -1740.4893708738  -0.000000009113 0.00000122  0.00000002  0.0000010 0.0000
                 **** Energy Check signals convergence ****

               *****************************************************
               *                     SUCCESS                       *
               *           SCF CONVERGED AFTER  13 CYCLES          *
               *****************************************************

Setting up the final grid:

General Integration Accuracy     IntAcc      ...  4.670
Radial Grid Type                 RadialGrid  ... Gauss-Chebyshev
Angular Grid (max. acc.)         AngularGrid ... Lebedev-302
Angular grid pruning method      GridPruning ... 3 (G Style)
Weight generation scheme         WeightScheme... Becke
Basis function cutoff            BFCut       ...    1.0000e-11
Integration weight cutoff        WCut        ...    1.0000e-14
Grids for H and He will be reduced by one unit

# of grid points (after initial pruning)     ...  15828 (   0.0 sec)
# of grid points (after weights+screening)   ...  15779 (   0.0 sec)
nearest neighbour list constructed           ...    0.0 sec
Grid point re-assignment to atoms done       ...    0.0 sec
Grid point division into batches done        ...    0.1 sec
Reduced shell lists constructed in    0.1 sec

Total number of grid points                  ...    15779
Total number of batches                      ...      248
Average number of points per batch           ...       63
Average number of grid points per atom       ...     7890
Average number of shells per batch           ...    15.92 (40.81%)
Average number of basis functions per batch  ...    36.92 (26.56%)
Average number of large shells per batch     ...     8.58 (53.93%)
Average number of large basis fcns per batch ...    18.92 (51.24%)
Maximum spatial batch extension              ...  22.45, 22.17, 15.93 au
Average spatial batch extension              ...   0.81,  0.79,  0.61 au

Final grid set up in    0.1 sec
Final integration                            ... done (   0.1 sec)
Change in XC energy                          ...    -0.000863209
Integrated number of electrons               ...    38.000041517
Previous integrated no of electrons          ...    38.000755827
Total Energy       :        -1740.49023408 Eh          -47361.14706 eV
  Last Energy change         ...    4.3428e-10  Tolerance :   1.0000e-08
  Last MAX-Density change    ...    3.7500e-07  Tolerance :   1.0000e-07
             **** THE GBW FILE WAS UPDATED (50_CuF.gbw) ****
             **** DENSITY FILE WAS UPDATED (50_CuF.scfp) ****
             **** ENERGY FILE WAS UPDATED (50_CuF.en.tmp) ****
             **** THE GBW FILE WAS UPDATED (50_CuF.gbw) ****
             **** DENSITY FILE WAS UPDATED (50_CuF.scfp) ****
Total SCF time: 0 days 0 hours 0 min 2 sec 


[...]

--------------
SCF ITERATIONS
--------------
ITER       Energy         Delta-E        Max-DP      RMS-DP      [F,P]     Damp
               ***  Starting incremental Fock matrix formation  ***
  0  -1740.4896862881   0.000000000000 0.00002173  0.00000043  0.0000574 0.7000
  1  -1740.4896862146   0.000000073554 0.00001998  0.00000038  0.0000254 0.7000
                               ***Turning on DIIS***
  2  -1740.4896862413  -0.000000026708 0.00007182  0.00000117  0.0000178 0.0000
  3  -1740.4896863741  -0.000000132831 0.00001894  0.00000047  0.0000203 0.0000
  4  -1740.4896863137   0.000000060382 0.00001450  0.00000029  0.0000413 0.0000
  5  -1740.4896863527  -0.000000038907 0.00001000  0.00000013  0.0000072 0.0000
  6  -1740.4896863676  -0.000000014909 0.00000751  0.00000009  0.0000102 0.0000
                            ***DIIS convergence achieved***

               *****************************************************
               *                     SUCCESS                       *
               *           SCF CONVERGED AFTER   7 CYCLES          *
               *****************************************************

Setting up the final grid:

General Integration Accuracy     IntAcc      ...  4.670
Radial Grid Type                 RadialGrid  ... Gauss-Chebyshev
Angular Grid (max. acc.)         AngularGrid ... Lebedev-302
Angular grid pruning method      GridPruning ... 3 (G Style)
Weight generation scheme         WeightScheme... Becke
Basis function cutoff            BFCut       ...    1.0000e-11
Integration weight cutoff        WCut        ...    1.0000e-14
Grids for H and He will be reduced by one unit

# of grid points (after initial pruning)     ...  15828 (   0.0 sec)
# of grid points (after weights+screening)   ...  15780 (   0.0 sec)
nearest neighbour list constructed           ...    0.0 sec
Grid point re-assignment to atoms done       ...    0.0 sec
Grid point division into batches done        ...    0.1 sec
Reduced shell lists constructed in    0.1 sec

Total number of grid points                  ...    15780
Total number of batches                      ...      248
Average number of points per batch           ...       63
Average number of grid points per atom       ...     7890
Average number of shells per batch           ...    15.92 (40.81%)
Average number of basis functions per batch  ...    36.92 (26.56%)
Average number of large shells per batch     ...     8.58 (53.93%)
Average number of large basis fcns per batch ...    18.92 (51.24%)
Maximum spatial batch extension              ...  22.45, 22.17, 15.93 au
Average spatial batch extension              ...   0.81,  0.79,  0.61 au

Final grid set up in    0.1 sec
Final integration                            ... done (   0.1 sec)
Change in XC energy                          ...    -0.000895822
Integrated number of electrons               ...    38.000038359
Previous integrated no of electrons          ...    38.000672357

----------------
TOTAL SCF ENERGY
----------------

Total Energy       :        -1740.49058215 Eh          -47361.15653 eV

Components:
Nuclear Repulsion  :           78.67550618 Eh            2140.86936 eV
Electronic Energy  :        -1819.16608833 Eh          -49502.02590 eV
One Electron Energy:        -2583.68726883 Eh          -70305.70486 eV
Two Electron Energy:          764.52118050 Eh           20803.67896 eV

Virial components:
Potential Energy   :        -3478.30337734 Eh          -94649.44678 eV
Kinetic Energy     :         1737.81279519 Eh           47288.29025 eV
Virial Ratio       :            2.00154089


DFT components:
N(Alpha)           :       19.000019179567 electrons
N(Beta)            :       19.000019179567 electrons
N(Total)           :       38.000038359135 electrons
E(X)               :      -76.005599805949 Eh       
E(C)               :       -1.670580173846 Eh       
E(XC)              :      -77.676179979795 Eh       
DFET-embed. en.    :        0.000000000000 Eh       

---------------
SCF CONVERGENCE
---------------

  Last Energy change         ...    4.0552e-08  Tolerance :   1.0000e-08
  Last MAX-Density change    ...    2.2730e-06  Tolerance :   1.0000e-07
  Last RMS-Density change    ...    2.4035e-08  Tolerance :   5.0000e-09
  Last DIIS Error            ...    2.7746e-07  Tolerance :   5.0000e-07

             **** THE GBW FILE WAS UPDATED (50_CuF.gbw) ****
             **** DENSITY FILE WAS UPDATED (50_CuF.scfp) ****
             **** ENERGY FILE WAS UPDATED (50_CuF.en.tmp) ****
             **** THE GBW FILE WAS UPDATED (50_CuF.gbw) ****
             **** DENSITY FILE WAS UPDATED (50_CuF.scfp) ****
----------------
ORBITAL ENERGIES
----------------

  NO   OCC          E(Eh)            E(eV) 
   0   2.0000    -322.107817     -8764.9993 
   1   2.0000     -38.394307     -1044.7622 
   2   2.0000     -33.611568      -914.6173 
   3   2.0000     -33.611568      -914.6173 
   4   2.0000     -33.611344      -914.6112 
   5   2.0000     -24.326962      -661.9703 
   6   2.0000      -4.176989      -113.6617 
   7   2.0000      -2.692939       -73.2786 
   8   2.0000      -2.685816       -73.0848 
   9   2.0000      -2.685816       -73.0848 
  10   2.0000      -0.997226       -27.1359 
  11   2.0000      -0.346133        -9.4188 
  12   2.0000      -0.301793        -8.2122 
  13   2.0000      -0.301793        -8.2122 
  14   2.0000      -0.234023        -6.3681 
  15   2.0000      -0.233952        -6.3662 
  16   2.0000      -0.218096        -5.9347 
  17   2.0000      -0.218096        -5.9347 
  18   2.0000      -0.214647        -5.8408 
  19   0.0000      -0.139398        -3.7932 
  20   0.0000      -0.016911        -0.4602 
  21   0.0000      -0.016911        -0.4602 
  22   0.0000       0.008205         0.2233 
  23   0.0000       0.014945         0.4067 
  24   0.0000       0.043482         1.1832 
  25   0.0000       0.043482         1.1832 
  26   0.0000       0.074610         2.0302 
  27   0.0000       0.126829         3.4512 
  28   0.0000       0.127012         3.4562 
  29   0.0000       0.127584         3.4717 
  30   0.0000       0.137582         3.7438 
  31   0.0000       0.145971         3.9721 
  32   0.0000       0.145972         3.9721 
  33   0.0000       0.211238         5.7481 
  34   0.0000       0.211238         5.7481 
  35   0.0000       0.227643         6.1945 
  36   0.0000       0.233243         6.3469 
  37   0.0000       0.233243         6.3469 
  38   0.0000       0.279231         7.5983 
  39   0.0000       0.449746        12.2382 
  40   0.0000       0.553564        15.0633 
  41   0.0000       0.554087        15.0775 
  42   0.0000       0.581173        15.8145 
  43   0.0000       0.581173        15.8145 
  44   0.0000       0.625287        17.0149 
  45   0.0000       0.709676        19.3113 
  46   0.0000       0.771605        20.9965 
  47   0.0000       0.772064        21.0089 
  48   0.0000       0.881627        23.9903 
  49   0.0000       0.886064        24.1110 
  50   0.0000       0.886064        24.1110 
  51   0.0000       0.971543        26.4370 
  52   0.0000       0.971543        26.4370 
  53   0.0000       1.061697        28.8902 
  54   0.0000       1.068205        29.0673 
  55   0.0000       1.068205        29.0673 
  56   0.0000       1.392941        37.9038 
  57   0.0000       1.396275        37.9946 
  58   0.0000       1.396275        37.9946 
  59   0.0000       1.462474        39.7959 
  60   0.0000       1.462685        39.8017 
  61   0.0000       1.735906        47.2364 
  62   0.0000       1.785384        48.5828 
  63   0.0000       1.785384        48.5828 
  64   0.0000       2.019502        54.9534 
  65   0.0000       2.028187        55.1898 
  66   0.0000       2.028187        55.1898 
  67   0.0000       2.079766        56.5933 
  68   0.0000       2.080089        56.6021 
  69   0.0000       2.305503        62.7359 
  70   0.0000       2.575930        70.0946 
  71   0.0000       2.585632        70.3586 
  72   0.0000       2.664168        72.4957 
  73   0.0000       2.664168        72.4957 
  74   0.0000       2.694337        73.3166 
  75   0.0000       2.694337        73.3166 
  76   0.0000       2.804594        76.3169 
  77   0.0000       2.807141        76.3862 
  78   0.0000       2.910923        79.2102 
  79   0.0000       3.295681        89.6800 
  80   0.0000       3.295681        89.6800 
  81   0.0000       3.742137       101.8287 
  82   0.0000       3.861334       105.0722 
  83   0.0000       4.197704       114.2253 
  84   0.0000       4.197704       114.2253 
  85   0.0000       4.295819       116.8952 
  86   0.0000       4.295819       116.8952 
  87   0.0000       4.350242       118.3761 
  88   0.0000       4.350255       118.3765 
  89   0.0000       4.481296       121.9423 
  90   0.0000       4.481296       121.9423 
  91   0.0000       4.606436       125.3475 
  92   0.0000       4.730688       128.7286 
  93   0.0000       4.793704       130.4433 
  94   0.0000       4.793704       130.4433 
  95   0.0000       5.096987       138.6961 
  96   0.0000       5.997923       163.2118 
  97   0.0000       5.997923       163.2118 
  98   0.0000       6.002509       163.3366 
  99   0.0000       6.002959       163.3488 
 100   0.0000       6.033299       164.1744 
 101   0.0000       6.033624       164.1833 
 102   0.0000       6.249748       170.0643 
 103   0.0000       6.249748       170.0643 
 104   0.0000       6.405871       174.3126 
 105   0.0000       7.808341       212.4758 
 106   0.0000       7.808822       212.4889 
 107   0.0000       7.889440       214.6826 
 108   0.0000       7.889440       214.6826 
 109   0.0000       8.372384       227.8242 
 110   0.0000       8.387095       228.2245 
 111   0.0000       8.387095       228.2245 
 112   0.0000       8.423615       229.2182 
 113   0.0000       8.488472       230.9831 
 114   0.0000       8.724448       237.4043 
 115   0.0000       8.730057       237.5569 
 116   0.0000       8.773056       238.7270 
 117   0.0000       8.798156       239.4100 
 118   0.0000       8.798156       239.4100 
 119   0.0000       8.865315       241.2375 
 120   0.0000       8.865315       241.2375 
 121   0.0000       9.372479       255.0381 
 122   0.0000      13.234234       360.1218 
 123   0.0000      13.871132       377.4527 
 124   0.0000      13.871132       377.4527 
 125   0.0000      13.898452       378.1961 
 126   0.0000      13.898480       378.1969 
 127   0.0000      13.980051       380.4165 
 128   0.0000      13.980051       380.4165 
 129   0.0000      14.086865       383.3231 
 130   0.0000      16.445578       447.5069 
 131   0.0000      16.445617       447.5080 
 132   0.0000      16.445617       447.5080 
 133   0.0000      16.446219       447.5244 
 134   0.0000      16.467579       448.1056 
 135   0.0000      16.468278       448.1246 
 136   0.0000      16.605143       451.8489 
 137   0.0000      16.605143       451.8489 
 138   0.0000      16.744597       455.6436 

                    ********************************
                    * MULLIKEN POPULATION ANALYSIS *
                    ********************************

-----------------------
MULLIKEN ATOMIC CHARGES
-----------------------
   0 Cu:    0.645135
   1 F :   -0.645135
Sum of atomic charges:   -0.0000000

--------------------------------
MULLIKEN REDUCED ORBITAL CHARGES
--------------------------------
  0 Cus       :     6.440321  s :     6.440321
      pz      :     4.025419  p :    12.118111
      px      :     4.046346
      py      :     4.046346
      dz2     :     1.797708  d :     9.785560
      dxz     :     1.994270
      dyz     :     1.994270
      dx2y2   :     1.999654
      dxy     :     1.999658
      f0      :     0.004605  f :     0.010649
      f+1     :     0.002925
      f-1     :     0.002925
      f+2     :     0.000096
      f-2     :     0.000097
      f+3     :    -0.000000
      f-3     :    -0.000000
      g0      :     0.000115  g :     0.000225
      g+1     :     0.000054
      g-1     :     0.000054
      g+2     :     0.000001
      g-2     :     0.000001
      g+3     :     0.000000
      g-3     :     0.000000
      g+4     :     0.000000
      g-4     :     0.000000
  1 F s       :     4.008870  s :     4.008870
      pz      :     1.720171  p :     5.624665
      px      :     1.952247
      py      :     1.952247
      dz2     :     0.002256  d :     0.009567
      dxz     :     0.003522
      dyz     :     0.003522
      dx2y2   :     0.000135
      dxy     :     0.000132
      f0      :     0.000534  f :     0.002033
      f+1     :     0.000635
      f-1     :     0.000635
      f+2     :     0.000114
      f-2     :     0.000112
      f+3     :     0.000001
      f-3     :     0.000001


                     *******************************
                     * LOEWDIN POPULATION ANALYSIS *
                     *******************************

----------------------
LOEWDIN ATOMIC CHARGES
----------------------
   0 Cu:    0.404303
   1 F :   -0.404303

-------------------------------
LOEWDIN REDUCED ORBITAL CHARGES
-------------------------------
  0 Cus       :     6.392436  s :     6.392436
      pz      :     4.099858  p :    12.238016
      px      :     4.069079
      py      :     4.069079
      dz2     :     1.884543  d :     9.886158
      dxz     :     2.003771
      dyz     :     2.003771
      dx2y2   :     1.997034
      dxy     :     1.997039
      f0      :     0.037656  f :     0.078038
      f+1     :     0.020036
      f-1     :     0.020036
      f+2     :     0.000155
      f-2     :     0.000155
      f+3     :     0.000000
      f-3     :     0.000000
      g0      :     0.000545  g :     0.001049
      g+1     :     0.000252
      g-1     :     0.000252
      g+2     :     0.000000
      g-2     :     0.000000
      g+3     :     0.000000
      g-3     :     0.000000
      g+4     :     0.000000
      g-4     :     0.000000
  1 F s       :     3.740365  s :     3.740365
      pz      :     1.754415  p :     5.488681
      px      :     1.867133
      py      :     1.867133
      dz2     :     0.072391  d :     0.135363
      dxz     :     0.029489
      dyz     :     0.029489
      dx2y2   :     0.001999
      dxy     :     0.001995
      f0      :     0.017791  f :     0.039893
      f+1     :     0.010239
      f-1     :     0.010239
      f+2     :     0.000812
      f-2     :     0.000810
      f+3     :     0.000001
      f-3     :     0.000001


                      *****************************
                      * MAYER POPULATION ANALYSIS *
                      *****************************

  NA   - Mulliken gross atomic population
  ZA   - Total nuclear charge
  QA   - Mulliken gross atomic charge
  VA   - Mayer's total valence
  BVA  - Mayer's bonded valence
  FA   - Mayer's free valence

  ATOM       NA         ZA         QA         VA         BVA        FA
  0 Cu    28.3549    29.0000     0.6451     0.6978     0.6978    -0.0000
  1 F      9.6451     9.0000    -0.6451     0.6978     0.6978     0.0000

  Mayer bond orders larger than 0.100000
B(  0-Cu,  1-F ) :   0.6978 

-------
TIMINGS
-------

Total SCF time: 0 days 0 hours 0 min 1 sec 

Total time                  ....       1.602 sec
Sum of individual times     ....       1.443 sec  ( 90.1%)

Fock matrix formation       ....       1.272 sec  ( 79.4%)
  Split-RI-J                ....       0.995 sec  ( 78.2% of F)
  XC integration            ....       0.112 sec  (  8.8% of F)
    Basis function eval.    ....       0.019 sec  ( 17.2% of XC)
    Density eval.           ....       0.014 sec  ( 12.6% of XC)
    XC-Functional eval.     ....       0.005 sec  (  4.7% of XC)
    XC-Potential eval.      ....       0.029 sec  ( 25.6% of XC)
Diagonalization             ....       0.020 sec  (  1.3%)
Density matrix formation    ....       0.004 sec  (  0.2%)
Population analysis         ....       0.004 sec  (  0.3%)
Initial guess               ....       0.011 sec  (  0.7%)
Orbital Transformation      ....       0.000 sec  (  0.0%)
Orbital Orthonormalization  ....       0.006 sec  (  0.4%)
DIIS solution               ....       0.008 sec  (  0.5%)
Grid generation             ....       0.124 sec  (  7.8%)


-------------------------------------------------------------------------------
                          DFT DISPERSION CORRECTION                            
                                                                               
                              DFTD3 V3.1  Rev 1                                
                          USING Becke-Johnson damping                          
-------------------------------------------------------------------------------
The TPSS functional is recognized
Active option DFTDOPT                   ...         4   

molecular C6(AA) [au] = 243.905481 


            DFT-D V3
 parameters
 s6 scaling factor         :     1.0000 
 a1 scaling factor         :     0.4535 
 s8 scaling factor         :     1.9435 
 a2 scaling factor         :     4.4752 
 ad hoc parameters k1-k3   :    16.0000     1.3333    -4.0000 

 Edisp/kcal,au: -0.302970872275  -0.000482814766 
 E6   /kcal   :  -0.126533378 
 E8   /kcal   :  -0.176437494 
 % E8         :  58.235794386 

-------------------------   ----------------
Dispersion correction           -0.000482815
-------------------------   ----------------


-------------------------   --------------------
FINAL SINGLE POINT ENERGY     -1740.491064964192
-------------------------   --------------------

                                *** OPTIMIZATION RUN DONE ***

                            ***************************************
                            *     ORCA property calculations      *
                            ***************************************

                                    ---------------------
                                    Active property flags
                                    ---------------------
   (+) Dipole Moment


------------------------------------------------------------------------------
                       ORCA ELECTRIC PROPERTIES CALCULATION
------------------------------------------------------------------------------

Dipole Moment Calculation                       ... on
Quadrupole Moment Calculation                   ... off
Polarizability Calculation                      ... off
GBWName                                         ... 50_CuF.gbw
Electron density file                           ... 50_CuF.scfp
The origin for moment calculation is the CENTER OF MASS  = ( 0.000000,  0.000000  0.994502)

-------------
DIPOLE MOMENT
-------------
                                X             Y             Z
Electronic contribution:      0.00000      -0.00000      -2.68394
Nuclear contribution   :      0.00000       0.00000       0.84427
                        -----------------------------------------
Total Dipole Moment    :      0.00000      -0.00000      -1.83967
                        -----------------------------------------
Magnitude (a.u.)       :      1.83967
Magnitude (Debye)      :      4.67608



--------------------
Rotational spectrum 
--------------------
 
Rotational constants in cm-1:     0.000000     0.374004     0.374004 
Rotational constants in MHz :     0.000000 11212.347169 11212.347169 

 Dipole components along the rotational axes: 
x,y,z [a.u.] :    -1.839673    -0.000000     0.000000 
x,y,z [Debye]:    -4.676078    -0.000000     0.000000 

 

Timings for individual modules:

Sum of individual times         ...       65.025 sec (=   1.084 min)
GTO integral calculation        ...       18.209 sec (=   0.303 min)  28.0 %
SCF iterations                  ...       18.615 sec (=   0.310 min)  28.6 %
SCF Gradient evaluation         ...       27.996 sec (=   0.467 min)  43.1 %
Geometry relaxation             ...        0.204 sec (=   0.003 min)   0.3 %
                             ****ORCA TERMINATED NORMALLY****
TOTAL RUN TIME: 0 days 0 hours 1 minutes 5 seconds 977 msec
