
                                 *****************
                                 * O   R   C   A *
                                 *****************

           --- An Ab Initio, DFT and Semiempirical electronic structure package ---

                  #######################################################
                  #                        -***-                        #
                  #          Department of theory and spectroscopy      #
                  #               Directorship: Frank Neese             #
                  #        Max Planck Institute fuer Kohlenforschung    #
                  #                Kaiser Wilhelm Platz 1               #
                  #                 D-45470 Muelheim/Ruhr               #
                  #                      Germany                        #
                  #                                                     #
                  #                  All rights reserved                #
                  #                        -***-                        #
                  #######################################################


                         Program Version 4.2.0 -  RELEASE  -


 With contributions from (in alphabetic order):
   Daniel Aravena         : Magnetic Suceptibility
   Michael Atanasov       : Ab Initio Ligand Field Theory (pilot matlab implementation)
   Alexander A. Auer      : GIAO ZORA, VPT2
   Ute Becker             : Parallelization
   Giovanni Bistoni       : ED, misc. LED, open-shell LED, HFLED
   Martin Brehm           : Molecular dynamics
   Dmytro Bykov           : SCF Hessian
   Vijay G. Chilkuri      : MRCI spin determinant printing, contributions to CSF-ICE
   Dipayan Datta          : RHF DLPNO-CCSD density
   Achintya Kumar Dutta   : EOM-CC, STEOM-CC
   Dmitry Ganyushin       : Spin-Orbit,Spin-Spin,Magnetic field MRCI
   Miquel Garcia          : C-PCM Hessian, Gaussian charge scheme
   Yang Guo               : DLPNO-NEVPT2, CIM, IAO-localization
   Andreas Hansen         : Spin unrestricted coupled pair/coupled cluster methods
   Benjamin Helmich-Paris : CASSCF linear response (MC-RPA)
   Lee Huntington         : MR-EOM, pCC
   Robert Izsak           : Overlap fitted RIJCOSX, COSX-SCS-MP3, EOM
   Christian Kollmar      : KDIIS, OOCD, Brueckner-CCSD(T), CCSD density
   Simone Kossmann        : Meta GGA functionals, TD-DFT gradient, OOMP2, MP2 Hessian
   Martin Krupicka        : AUTO-CI
   Lucas Lang             : DCDCAS
   Dagmar Lenk            : GEPOL surface, SMD
   Dimitrios Liakos       : Extrapolation schemes; Compound Job, initial MDCI parallelization
   Dimitrios Manganas     : Further ROCIS development; embedding schemes
   Dimitrios Pantazis     : SARC Basis sets
   Taras Petrenko         : DFT Hessian,TD-DFT gradient, ASA, ECA, R-Raman, ABS, FL, XAS/XES, NRVS
   Peter Pinski           : DLPNO-MP2, DLPNO-MP2 Gradient
   Christoph Reimann      : Effective Core Potentials
   Marius Retegan         : Local ZFS, SOC
   Christoph Riplinger    : Optimizer, TS searches, QM/MM, DLPNO-CCSD(T), (RO)-DLPNO pert. Triples
   Tobias Risthaus        : Range-separated hybrids, TD-DFT gradient, RPA, STAB
   Michael Roemelt        : Original ROCIS implementation
   Masaaki Saitow         : Open-shell DLPNO-CCSD energy and density
   Barbara Sandhoefer     : DKH picture change effects
   Avijit Sen             : IP-ROCIS
   Kantharuban Sivalingam : CASSCF convergence, NEVPT2, FIC-MRCI
   Bernardo de Souza      : ESD, SOC TD-DFT
   Georgi Stoychev        : AutoAux, RI-MP2 NMR
   Willem Van den Heuvel  : Paramagnetic NMR
   Boris Wezisla          : Elementary symmetry handling
   Frank Wennmohs         : Technical directorship


 We gratefully acknowledge several colleagues who have allowed us to
 interface, adapt or use parts of their codes:
   Stefan Grimme, W. Hujo, H. Kruse,             : VdW corrections, initial TS optimization,
                  C. Bannwarth                     DFT functionals, gCP, sTDA/sTD-DF
   Ed Valeev, F. Pavosevic, A. Kumar             : LibInt (2-el integral package), F12 methods
   Garnet Chan, S. Sharma, J. Yang, R. Olivares  : DMRG
   Ulf Ekstrom                                   : XCFun DFT Library
   Mihaly Kallay                                 : mrcc  (arbitrary order and MRCC methods)
   Andreas Klamt, Michael Diedenhofen            : otool_cosmo (COSMO solvation model)
   Jiri Pittner, Ondrej Demel                    : Mk-CCSD
   Frank Weinhold                                : gennbo (NPA and NBO analysis)
   Christopher J. Cramer and Donald G. Truhlar   : smd solvation model
   Lars Goerigk                                  : TD-DFT with DH, B97 family of functionals
   V. Asgeirsson, H. Jonsson                     : NEB implementation
   FAccTs GmbH                                   : IRC, NEB, NEB-TS, Multilevel, MM, QM/MM, CI optimization
   S Lehtola, MJT Oliveira, MAL Marques          : LibXC Library


 Your calculation uses the libint2 library for the computation of 2-el integrals
 For citations please refer to: http://libint.valeyev.net

 Your ORCA version has been built with support for libXC version: 4.2.3
 For citations please refer to: https://tddft.org/programs/libxc/

 This ORCA versions uses:
   CBLAS   interface :  Fast vector & matrix operations
   LAPACKE interface :  Fast linear algebra routines
   SCALAPACK package :  Parallel linear algebra routines


Your calculation utilizes the atom-pairwise dispersion correction
with the Becke-Johnson damping scheme (D3BJ)
Cite in your paper:
S.Grimme, S.Ehrlich, L.Goerigk, J Comput Chem, (2011), 32, 1456–1465 
S.Grimme, J.Antony, S.Ehrlich and H.Krieg, J.Chem.Phys., 132, (2010), 154104 
   

----- Orbital basis set information -----
Your calculation utilizes the basis: aug-cc-pVTZ 
    H, B-Ne : Obtained from the ccRepo (grant-hill.group.shef.ac.uk/ccrepo) Feb. 2017
              R. A. Kendall, T. H. Dunning, Jr., R. J. Harrison, J. Chem. Phys. 96, 6796 (1992)
         He : Obtained from the ccRepo (grant-hill.group.shef.ac.uk/ccrepo) Feb. 2017
              D. E. Woon, T. H. Dunning, Jr., J. Chem. Phys. 100, 2975 (1994)
  Li-Be, Na : Obtained from the ccRepo (grant-hill.group.shef.ac.uk/ccrepo) Feb. 2017
              B. P. Prascher, D. E. Woon, K. A. Peterson, T. H. Dunning, Jr., A. K. Wilson, Theor. Chem. Acc. 128, 69 (2011)
         Mg : Obtained from the Peterson Research Group Website (tyr0.chem.wsu.edu/~kipeters) Feb. 2017
              B. P. Prascher, D. E. Woon, K. A. Peterson, T. H. Dunning, Jr., A. K. Wilson, Theor. Chem. Acc. 128, 69 (2011)
      Al-Ar : Obtained from the ccRepo (grant-hill.group.shef.ac.uk/ccrepo) Feb. 2017
              D. E. Woon, T. H. Dunning, Jr., J. Chem. Phys. 98, 1358 (1993)
      Sc-Zn : Obtained from the ccRepo (grant-hill.group.shef.ac.uk/ccrepo) Feb. 2017
              N. B. Balabanov, K. A. Peterson, J. Chem. Phys. 123, 064107 (2005)
              N. B. Balabanov, K. A. Peterson, J. Chem. Phys. 125, 074110 (2006)
      Ga-Kr : Obtained from the ccRepo (grant-hill.group.shef.ac.uk/ccrepo) Feb. 2017
              A. K. Wilson, D. E. Woon, K. A. Peterson, T. H. Dunning, Jr., J. Chem. Phys. 110, 7667 (1999)
     Ag, Au : Obtained from the Peterson Research Group Website (tyr0.chem.wsu.edu/~kipeters) Feb. 2017
              K. A. Peterson, C. Puzzarini, Theor. Chem. Acc. 114, 283 (2005)

----- AuxJ basis set information -----
Your calculation utilizes the auxiliary basis: def2/J
   F. Weigend, Phys. Chem. Chem. Phys. 8, 1057 (2006).

================================================================================
                                        WARNINGS
                       Please study these warnings very carefully!
================================================================================


WARNING: Geometry Optimization
  ===> : Switching off AutoStart
         For restart on a previous wavefunction, please use MOREAD

INFO   : the flag for use of LIBINT has been found!

================================================================================
                                       INPUT FILE
================================================================================
NAME = 52_CuBr.in
|  1> #
|  2> # 52_CuBr tpss/aug-cc-pvtz
|  3> #
|  4> ! tpss d3bj aug-cc-pvtz def2/j opt xyzfile
|  5> 
|  6> *xyz 0 1
|  7> Cu 0.0 0.0 0.0
|  8> Br 0.0 0.0 2.0
|  9> *
| 10> 
| 11> %pal
| 12> nprocs 24
| 13> end
| 14> 
| 15> 
| 16>                          ****END OF INPUT****
================================================================================

                       *****************************
                       * Geometry Optimization Run *
                       *****************************

Geometry optimization settings:
Update method            Update   .... BFGS
Choice of coordinates    CoordSys .... Z-matrix Internals
Initial Hessian          InHess   .... Almoef's Model

Convergence Tolerances:
Energy Change            TolE     ....  5.0000e-06 Eh
Max. Gradient            TolMAXG  ....  3.0000e-04 Eh/bohr
RMS Gradient             TolRMSG  ....  1.0000e-04 Eh/bohr
Max. Displacement        TolMAXD  ....  4.0000e-03 bohr
RMS Displacement         TolRMSD  ....  2.0000e-03 bohr
Strict Convergence                ....  False
------------------------------------------------------------------------------
                        ORCA OPTIMIZATION COORDINATE SETUP
------------------------------------------------------------------------------

The optimization will be done in new redundant internal coordinates
Making redundant internal coordinates   ...  (new redundants) done
Evaluating the initial hessian          ...  (Almloef) done
Evaluating the coordinates              ...  done
Calculating the B-matrix                .... done
Calculating the G-matrix                .... done
Diagonalizing the G-matrix              .... done
The first mode is                       ....    0
The number of degrees of freedom        ....    1

    -----------------------------------------------------------------
                    Redundant Internal Coordinates


    -----------------------------------------------------------------
         Definition                    Initial Value    Approx d2E/dq
    -----------------------------------------------------------------
      1. B(Br  1,Cu  0)                  2.0000         2.260171   
    -----------------------------------------------------------------

Number of atoms                         .... 2
Number of degrees of freedom            .... 1

         *************************************************************
         *                GEOMETRY OPTIMIZATION CYCLE   1            *
         *************************************************************
---------------------------------
CARTESIAN COORDINATES (ANGSTROEM)
---------------------------------
  Cu     0.000000    0.000000    0.000000
  Br     0.000000    0.000000    2.000000

----------------------------
CARTESIAN COORDINATES (A.U.)
----------------------------
  NO LB      ZA    FRAG     MASS         X           Y           Z
   0 Cu   29.0000    0    63.550    0.000000    0.000000    0.000000
   1 Br   35.0000    0    79.900    0.000000    0.000000    3.779452

--------------------------------
INTERNAL COORDINATES (ANGSTROEM)
--------------------------------
 Cu     0   0   0     0.000000000000     0.00000000     0.00000000
 Br     1   0   0     2.000000000000     0.00000000     0.00000000

---------------------------
INTERNAL COORDINATES (A.U.)
---------------------------
 Cu     0   0   0     0.000000000000     0.00000000     0.00000000
 Br     1   0   0     3.779452267843     0.00000000     0.00000000

---------------------
BASIS SET INFORMATION
---------------------
There are 2 groups of distinct atoms

 Group   1 Type Cu  : 116s77p23d3f2g contracted to 8s7p5d3f2g pattern {19191919191911/151515151511/77711/111/11}
 Group   2 Type Br  : 75s36p10d2f contracted to 7s6p4d2f pattern {18181818111/111111111/7111/11}

Atom   0Cu   basis set group =>   1
Atom   1Br   basis set group =>   2
---------------------------------
AUXILIARY/J BASIS SET INFORMATION
---------------------------------
There are 2 groups of distinct atoms

 Group   1 Type Cu  : 19s5p5d3f3g contracted to 8s5p4d3f3g pattern {121111111/11111/2111/111/111}
 Group   2 Type Br  : 19s5p5d3f1g contracted to 8s4p3d2f1g pattern {121111111/2111/311/21/1}

Atom   0Cu   basis set group =>   1
Atom   1Br   basis set group =>   2


           ************************************************************
           *        Program running with 24 parallel MPI-processes    *
           *              working on a common directory               *
           ************************************************************
------------------------------------------------------------------------------
                           ORCA GTO INTEGRAL CALCULATION
                           -- RI-GTO INTEGRALS CHOSEN --
------------------------------------------------------------------------------

                         BASIS SET STATISTICS AND STARTUP INFO

Gaussian basis set:
 # of primitive gaussian shells          ...  344
 # of primitive gaussian functions       ...  748
 # of contracted shells                  ...   44
 # of contracted basis functions         ...  152
 Highest angular momentum                ...    4
 Maximum contraction depth               ...   19
Auxiliary gaussian basis set:
 # of primitive gaussian shells          ...   68
 # of primitive gaussian functions       ...  196
 # of contracted shells                  ...   41
 # of contracted aux-basis functions     ...  149
 Highest angular momentum                ...    4
 Maximum contraction depth               ...   12
Ratio of auxiliary to basis functions    ...  0.98
Integral package used                  ... LIBINT
 One Electron integrals                  ... done
 Ordering auxiliary basis shells         ... done
 Integral threshhold             Thresh  ...  2.500e-11
 Primitive cut-off               TCut    ...  2.500e-12
 Pre-screening matrix                    ... done
 Shell pair data                         ... 
 Ordering of the shell pairs             ... done (   0.000 sec) 990 of 990 pairs
 Determination of significant pairs      ... done (   0.000 sec)
 Creation of shell pair data             ... done (   0.002 sec)
 Storage of shell pair data              ... done (   0.061 sec)
 Shell pair data done in (   0.063 sec)
 Computing two index integrals           ... done
 Cholesky decomposition of the V-matrix  ... done


Timings:
 Total evaluation time                   ...   3.900 sec (  0.065 min)
 One electron matrix time                ...   0.051 sec (  0.001 min) =  1.3%
 Schwartz matrix evaluation time         ...   3.756 sec (  0.063 min) = 96.3%
 Two index repulsion integral time       ...   0.001 sec (  0.000 min) =  0.0%
 Cholesky decomposition of V             ...   0.001 sec (  0.000 min) =  0.0%
 Three index repulsion integral time     ...   0.000 sec (  0.000 min) =  0.0%



           ************************************************************
           *        Program running with 24 parallel MPI-processes    *
           *              working on a common directory               *
           ************************************************************
-------------------------------------------------------------------------------
                                 ORCA SCF
-------------------------------------------------------------------------------

------------
SCF SETTINGS
------------
Hamiltonian:
 Density Functional     Method          .... DFT(GTOs)
 Exchange Functional    Exchange        .... TPSS
 Correlation Functional Correlation     .... TPSS
 LDA part of GGA corr.  LDAOpt          .... PW91-LDA
 Gradients option       PostSCFGGA      .... off
   Density functional embedding theory  .... OFF
   NL short-range parameter             ....  5.000000
 RI-approximation to the Coulomb term is turned on
   Number of auxiliary basis functions  .... 149


General Settings:
 Integral files         IntName         .... 52_CuBr
 Hartree-Fock type      HFTyp           .... RHF
 Total Charge           Charge          ....    0
 Multiplicity           Mult            ....    1
 Number of Electrons    NEL             ....   64
 Basis Dimension        Dim             ....  152
 Nuclear Repulsion      ENuc            ....    268.5574332123 Eh

Convergence Acceleration:
 DIIS                   CNVDIIS         .... on
   Start iteration      DIISMaxIt       ....    12
   Startup error        DIISStart       ....  0.200000
   # of expansion vecs  DIISMaxEq       ....     5
   Bias factor          DIISBfac        ....   1.050
   Max. coefficient     DIISMaxC        ....  10.000
 Newton-Raphson         CNVNR           .... off
 SOSCF                  CNVSOSCF        .... off
 Level Shifting         CNVShift        .... on
   Level shift para.    LevelShift      ....    0.2500
   Turn off err/grad.   ShiftErr        ....    0.0010
 Zerner damping         CNVZerner       .... off
 Static damping         CNVDamp         .... on
   Fraction old density DampFac         ....    0.7000
   Max. Damping (<1)    DampMax         ....    0.9800
   Min. Damping (>=0)   DampMin         ....    0.0000
   Turn off err/grad.   DampErr         ....    0.1000
 Fernandez-Rico         CNVRico         .... off

SCF Procedure:
 Maximum # iterations   MaxIter         ....   125
 SCF integral mode      SCFMode         .... Direct
   Integral package                     .... LIBINT
 Reset frequency        DirectResetFreq ....    20
 Integral Threshold     Thresh          ....  2.500e-11 Eh
 Primitive CutOff       TCut            ....  2.500e-12 Eh

Convergence Tolerance:
 Convergence Check Mode ConvCheckMode   .... Total+1el-Energy
 Convergence forced     ConvForced      .... 0
 Energy Change          TolE            ....  1.000e-08 Eh
 1-El. energy change                    ....  1.000e-05 Eh
 DIIS Error             TolErr          ....  5.000e-07


Diagonalization of the overlap matrix:
Smallest eigenvalue                        ... 1.235e-04
Time for diagonalization                   ...    0.005 sec
Threshold for overlap eigenvalues          ... 1.000e-08
Number of eigenvalues below threshold      ... 0
Time for construction of square roots      ...    0.002 sec
Total time needed                          ...    0.008 sec

-------------------
DFT GRID GENERATION
-------------------

General Integration Accuracy     IntAcc      ...  4.340
Radial Grid Type                 RadialGrid  ... Gauss-Chebyshev
Angular Grid (max. acc.)         AngularGrid ... Lebedev-110
Angular grid pruning method      GridPruning ... 3 (G Style)
Weight generation scheme         WeightScheme... Becke
Basis function cutoff            BFCut       ...    1.0000e-11
Integration weight cutoff        WCut        ...    1.0000e-14
Grids for H and He will be reduced by one unit

# of grid points (after initial pruning)     ...   5802 (   0.0 sec)
# of grid points (after weights+screening)   ...   5776 (   0.0 sec)
nearest neighbour list constructed           ...    0.0 sec
Grid point re-assignment to atoms done       ...    0.0 sec
Grid point division into batches done        ...    0.0 sec
Reduced shell lists constructed in    0.0 sec

Total number of grid points                  ...     5776
Total number of batches                      ...       91
Average number of points per batch           ...       63
Average number of grid points per atom       ...     2888
Average number of shells per batch           ...    24.00 (54.55%)
Average number of basis functions per batch  ...    65.60 (43.16%)
Average number of large shells per batch     ...    16.80 (70.00%)
Average number of large basis fcns per batch ...    47.20 (71.95%)
Maximum spatial batch extension              ...  17.39, 26.34, 14.81 au
Average spatial batch extension              ...   0.70,  0.97,  0.65 au

Time for grid setup =    0.029 sec

------------------------------
INITIAL GUESS: MODEL POTENTIAL
------------------------------
Loading Hartree-Fock densities                     ... done
Calculating cut-offs                               ... done
Setting up the integral package                    ... done
Initializing the effective Hamiltonian             ... done
Starting the Coulomb interaction                   ... done (   0.0 sec)
Reading the grid                                   ... done
Mapping shells                                     ... done
Starting the XC term evaluation                    ... done (   0.0 sec)
  promolecular density results
     # of electrons  =     64.000000232
     EX              =   -154.801823252
     EC              =     -3.069688583
     EX+EC           =   -157.871511835
Transforming the Hamiltonian                       ... done (   0.0 sec)
Diagonalizing the Hamiltonian                      ... done (   0.0 sec)
Back transforming the eigenvectors                 ... done (   0.0 sec)
Now organizing SCF variables                       ... done
                      ------------------
                      INITIAL GUESS DONE (   0.2 sec)
                      ------------------
--------------
SCF ITERATIONS
--------------
ITER       Energy         Delta-E        Max-DP      RMS-DP      [F,P]     Damp
               ***  Starting incremental Fock matrix formation  ***
  0  -4214.6872931011   0.000000000000 0.05501402  0.00134888  0.2044969 0.7000
  1  -4214.7090234567  -0.021730355630 0.03437221  0.00076910  0.0465344 0.7000
                               ***Turning on DIIS***
  2  -4214.7183898388  -0.009366382115 0.05931726  0.00139884  0.0369963 0.0000
  3  -4214.7324035263  -0.014013687465 0.01871161  0.00052678  0.0747090 0.0000
  4  -4214.7383822493  -0.005978723001 0.01156171  0.00024312  0.0130660 0.0000
  5  -4214.7389009441  -0.000518694835 0.00316758  0.00008370  0.0061650 0.0000
  6  -4214.7389546243  -0.000053680147 0.00125621  0.00003115  0.0017180 0.0000
  7  -4214.7389635511  -0.000008926766 0.00186856  0.00003285  0.0007747 0.0000
  8  -4214.7389661325  -0.000002581481 0.00058166  0.00000723  0.0003827 0.0000
  9  -4214.7389665954  -0.000000462830 0.00007482  0.00000175  0.0001031 0.0000
 10  -4214.7389664848   0.000000110526 0.00005167  0.00000081  0.0000802 0.0000
 11  -4214.7389665255  -0.000000040617 0.00002054  0.00000030  0.0000401 0.0000
 12  -4214.7389664398   0.000000085641 0.00001441  0.00000022  0.0000035 0.0000
 13  -4214.7389665600  -0.000000120178 0.00000252  0.00000004  0.0000013 0.0000
                            ***DIIS convergence achieved***

               *****************************************************
               *                     SUCCESS                       *
               *           SCF CONVERGED AFTER  14 CYCLES          *
               *****************************************************

Setting up the final grid:

General Integration Accuracy     IntAcc      ...  4.670
Radial Grid Type                 RadialGrid  ... Gauss-Chebyshev
Angular Grid (max. acc.)         AngularGrid ... Lebedev-302
Angular grid pruning method      GridPruning ... 3 (G Style)
Weight generation scheme         WeightScheme... Becke
Basis function cutoff            BFCut       ...    1.0000e-11
Integration weight cutoff        WCut        ...    1.0000e-14
Grids for H and He will be reduced by one unit

# of grid points (after initial pruning)     ...  19172 (   0.0 sec)
# of grid points (after weights+screening)   ...  19144 (   0.0 sec)
nearest neighbour list constructed           ...    0.0 sec
Grid point re-assignment to atoms done       ...    0.0 sec
Grid point division into batches done        ...    0.1 sec
Reduced shell lists constructed in    0.1 sec

Total number of grid points                  ...    19144
Total number of batches                      ...      300
Average number of points per batch           ...       63
Average number of grid points per atom       ...     9572
Average number of shells per batch           ...    17.71 (40.26%)
Average number of basis functions per batch  ...    42.86 (28.20%)
Average number of large shells per batch     ...     9.57 (54.03%)
Average number of large basis fcns per batch ...    22.29 (52.00%)
Maximum spatial batch extension              ...  22.45, 22.17, 16.62 au
Average spatial batch extension              ...   0.78,  0.77,  0.63 au

Final grid set up in    0.2 sec
Final integration                            ... done (   0.0 sec)
Change in XC energy                          ...    -0.004838412
Integrated number of electrons               ...    64.000013589
Previous integrated no of electrons          ...    63.999853711

----------------
TOTAL SCF ENERGY
----------------

Total Energy       :        -4214.74380495 Eh         -114689.00961 eV

Components:
Nuclear Repulsion  :          268.55743321 Eh            7307.81928 eV
Electronic Energy  :        -4483.30123816 Eh         -121996.82889 eV
One Electron Energy:        -6405.33973274 Eh         -174298.15527 eV
Two Electron Energy:         1922.03849458 Eh           52301.32639 eV

Virial components:
Potential Energy   :        -8423.51210894 Eh         -229215.41757 eV
Kinetic Energy     :         4208.76830399 Eh          114526.40796 eV
Virial Ratio       :            2.00141977


DFT components:
N(Alpha)           :       32.000006794332 electrons
N(Beta)            :       32.000006794332 electrons
N(Total)           :       64.000013588664 electrons
E(X)               :     -155.383866528058 Eh       
E(C)               :       -3.087822111862 Eh       
E(XC)              :     -158.471688639921 Eh       
DFET-embed. en.    :        0.000000000000 Eh       

---------------
SCF CONVERGENCE
---------------

  Last Energy change         ...    2.4223e-08  Tolerance :   1.0000e-08
  Last MAX-Density change    ...    7.2226e-07  Tolerance :   1.0000e-07
  Last RMS-Density change    ...    8.5778e-09  Tolerance :   5.0000e-09
  Last DIIS Error            ...    1.2800e-07  Tolerance :   5.0000e-07

             **** THE GBW FILE WAS UPDATED (52_CuBr.gbw) ****
             **** DENSITY FILE WAS UPDATED (52_CuBr.scfp) ****
             **** ENERGY FILE WAS UPDATED (52_CuBr.en.tmp) ****
             **** THE GBW FILE WAS UPDATED (52_CuBr.gbw) ****
             **** DENSITY FILE WAS UPDATED (52_CuBr.scfp) ****
----------------
ORBITAL ENERGIES
----------------

  NO   OCC          E(Eh)            E(eV) 
   0   2.0000    -481.713793    -13108.0987 
   1   2.0000    -322.114835     -8765.1903 
   2   2.0000     -61.927081     -1685.1215 
   3   2.0000     -55.760557     -1517.3219 
   4   2.0000     -55.759299     -1517.2877 
   5   2.0000     -55.759299     -1517.2877 
   6   2.0000     -38.403993     -1045.0258 
   7   2.0000     -33.621203      -914.8794 
   8   2.0000     -33.620968      -914.8730 
   9   2.0000     -33.620968      -914.8730 
  10   2.0000      -8.454498      -230.0586 
  11   2.0000      -6.295173      -171.3004 
  12   2.0000      -6.289224      -171.1385 
  13   2.0000      -6.289224      -171.1385 
  14   2.0000      -4.186372      -113.9170 
  15   2.0000      -2.706200       -73.6394 
  16   2.0000      -2.693771       -73.3012 
  17   2.0000      -2.693771       -73.3012 
  18   2.0000      -2.464185       -67.0539 
  19   2.0000      -2.462043       -66.9956 
  20   2.0000      -2.462043       -66.9956 
  21   2.0000      -2.457736       -66.8784 
  22   2.0000      -2.457299       -66.8665 
  23   2.0000      -0.692048       -18.8316 
  24   2.0000      -0.332658        -9.0521 
  25   2.0000      -0.291096        -7.9211 
  26   2.0000      -0.291096        -7.9211 
  27   2.0000      -0.241567        -6.5734 
  28   2.0000      -0.241178        -6.5628 
  29   2.0000      -0.229791        -6.2529 
  30   2.0000      -0.215971        -5.8769 
  31   2.0000      -0.215971        -5.8769 
  32   0.0000      -0.124540        -3.3889 
  33   0.0000      -0.016649        -0.4530 
  34   0.0000      -0.016649        -0.4530 
  35   0.0000       0.006785         0.1846 
  36   0.0000       0.009933         0.2703 
  37   0.0000       0.034763         0.9459 
  38   0.0000       0.034763         0.9459 
  39   0.0000       0.062261         1.6942 
  40   0.0000       0.077403         2.1063 
  41   0.0000       0.077404         2.1063 
  42   0.0000       0.088308         2.4030 
  43   0.0000       0.112255         3.0546 
  44   0.0000       0.112368         3.0577 
  45   0.0000       0.120108         3.2683 
  46   0.0000       0.145247         3.9524 
  47   0.0000       0.157218         4.2781 
  48   0.0000       0.157218         4.2781 
  49   0.0000       0.194534         5.2935 
  50   0.0000       0.194534         5.2935 
  51   0.0000       0.213770         5.8170 
  52   0.0000       0.213896         5.8204 
  53   0.0000       0.215962         5.8766 
  54   0.0000       0.288609         7.8535 
  55   0.0000       0.305237         8.3059 
  56   0.0000       0.305237         8.3059 
  57   0.0000       0.352992         9.6054 
  58   0.0000       0.450628        12.2622 
  59   0.0000       0.450628        12.2622 
  60   0.0000       0.522378        14.2146 
  61   0.0000       0.522384        14.2148 
  62   0.0000       0.525157        14.2902 
  63   0.0000       0.549838        14.9619 
  64   0.0000       0.550582        14.9821 
  65   0.0000       0.550582        14.9821 
  66   0.0000       0.633082        17.2270 
  67   0.0000       0.633591        17.2409 
  68   0.0000       0.688756        18.7420 
  69   0.0000       0.731643        19.9090 
  70   0.0000       0.731643        19.9090 
  71   0.0000       0.756035        20.5728 
  72   0.0000       0.767679        20.8896 
  73   0.0000       0.767679        20.8896 
  74   0.0000       0.810210        22.0469 
  75   0.0000       0.810382        22.0516 
  76   0.0000       0.906284        24.6612 
  77   0.0000       0.906284        24.6612 
  78   0.0000       0.956684        26.0327 
  79   0.0000       1.047627        28.5074 
  80   0.0000       1.047627        28.5074 
  81   0.0000       1.181603        32.1531 
  82   0.0000       1.404406        38.2158 
  83   0.0000       1.404406        38.2158 
  84   0.0000       1.435191        39.0535 
  85   0.0000       1.539908        41.9030 
  86   0.0000       1.540347        41.9150 
  87   0.0000       1.716915        46.7196 
  88   0.0000       1.716915        46.7196 
  89   0.0000       1.813459        49.3467 
  90   0.0000       1.913094        52.0579 
  91   0.0000       1.913094        52.0579 
  92   0.0000       1.969429        53.5909 
  93   0.0000       1.975115        53.7456 
  94   0.0000       2.010124        54.6983 
  95   0.0000       2.010124        54.6983 
  96   0.0000       2.021265        55.0014 
  97   0.0000       2.021985        55.0210 
  98   0.0000       2.021985        55.0210 
  99   0.0000       2.022446        55.0335 
 100   0.0000       2.033625        55.3377 
 101   0.0000       2.090641        56.8892 
 102   0.0000       2.092344        56.9356 
 103   0.0000       2.095423        57.0194 
 104   0.0000       2.095423        57.0194 
 105   0.0000       2.111287        57.4510 
 106   0.0000       2.318772        63.0970 
 107   0.0000       2.318772        63.0970 
 108   0.0000       2.346257        63.8449 
 109   0.0000       2.924786        79.5875 
 110   0.0000       3.828932       104.1905 
 111   0.0000       4.196244       114.1856 
 112   0.0000       4.196244       114.1856 
 113   0.0000       4.226239       115.0018 
 114   0.0000       4.294351       116.8552 
 115   0.0000       4.294351       116.8552 
 116   0.0000       4.350758       118.3902 
 117   0.0000       4.356148       118.5368 
 118   0.0000       4.530124       123.2709 
 119   0.0000       4.530124       123.2709 
 120   0.0000       4.561232       124.1174 
 121   0.0000       4.964045       135.0785 
 122   0.0000       5.988178       162.9466 
 123   0.0000       5.991144       163.0273 
 124   0.0000       5.991144       163.0273 
 125   0.0000       5.997188       163.1918 
 126   0.0000       5.999444       163.2532 
 127   0.0000       6.001280       163.3031 
 128   0.0000       6.071782       165.2216 
 129   0.0000       6.071782       165.2216 
 130   0.0000       6.218945       169.2261 
 131   0.0000       7.804077       212.3597 
 132   0.0000       7.805403       212.3958 
 133   0.0000       7.868291       214.1071 
 134   0.0000       7.868291       214.1071 
 135   0.0000       8.471876       230.5315 
 136   0.0000      13.865998       377.3130 
 137   0.0000      13.865998       377.3130 
 138   0.0000      13.897457       378.1690 
 139   0.0000      13.898180       378.1887 
 140   0.0000      13.994286       380.8039 
 141   0.0000      13.994286       380.8039 
 142   0.0000      14.038209       381.9991 
 143   0.0000      16.436563       447.2616 
 144   0.0000      16.436563       447.2616 
 145   0.0000      16.437904       447.2981 
 146   0.0000      16.437959       447.2996 
 147   0.0000      16.439668       447.3461 
 148   0.0000      16.441036       447.3833 
 149   0.0000      16.475762       448.3283 
 150   0.0000      16.475762       448.3283 
 151   0.0000      16.525608       449.6847 

                    ********************************
                    * MULLIKEN POPULATION ANALYSIS *
                    ********************************

-----------------------
MULLIKEN ATOMIC CHARGES
-----------------------
   0 Cu:    0.368614
   1 Br:   -0.368614
Sum of atomic charges:   -0.0000000

--------------------------------
MULLIKEN REDUCED ORBITAL CHARGES
--------------------------------
  0 Cus       :     6.612317  s :     6.612317
      pz      :     4.051539  p :    12.196830
      px      :     4.072645
      py      :     4.072645
      dz2     :     1.856668  d :     9.813469
      dxz     :     1.981237
      dyz     :     1.981237
      dx2y2   :     1.997157
      dxy     :     1.997169
      f0      :     0.002764  f :     0.008625
      f+1     :     0.002917
      f-1     :     0.002917
      f+2     :     0.000014
      f-2     :     0.000012
      f+3     :     0.000000
      f-3     :     0.000000
      g0      :     0.000066  g :     0.000145
      g+1     :     0.000036
      g-1     :     0.000036
      g+2     :     0.000003
      g-2     :     0.000004
      g+3     :     0.000000
      g-3     :     0.000000
      g+4     :     0.000000
      g-4     :     0.000000
  1 Brs       :     8.062909  s :     8.062909
      pz      :     5.411600  p :    17.263775
      px      :     5.926087
      py      :     5.926087
      dz2     :     2.001031  d :    10.033884
      dxz     :     2.014614
      dyz     :     2.014614
      dx2y2   :     2.001816
      dxy     :     2.001809
      f0      :     0.001107  f :     0.008047
      f+1     :     0.002462
      f-1     :     0.002462
      f+2     :     0.001010
      f-2     :     0.001006
      f+3     :     0.000000
      f-3     :     0.000000


                     *******************************
                     * LOEWDIN POPULATION ANALYSIS *
                     *******************************

----------------------
LOEWDIN ATOMIC CHARGES
----------------------
   0 Cu:   -0.173616
   1 Br:    0.173616

-------------------------------
LOEWDIN REDUCED ORBITAL CHARGES
-------------------------------
  0 Cus       :     6.486807  s :     6.486807
      pz      :     4.248652  p :    12.527782
      px      :     4.139565
      py      :     4.139565
      dz2     :     2.014762  d :    10.100725
      dxz     :     2.052936
      dyz     :     2.052936
      dx2y2   :     1.990034
      dxy     :     1.990056
      f0      :     0.023238  f :     0.057817
      f+1     :     0.017239
      f-1     :     0.017239
      f+2     :     0.000051
      f-2     :     0.000049
      f+3     :     0.000000
      f-3     :     0.000000
      g0      :     0.000230  g :     0.000484
      g+1     :     0.000126
      g-1     :     0.000126
      g+2     :     0.000001
      g-2     :     0.000002
      g+3     :     0.000000
      g-3     :     0.000000
      g+4     :     0.000000
      g-4     :     0.000000
  1 Brs       :     7.542559  s :     7.542559
      pz      :     5.509215  p :    16.940978
      px      :     5.715881
      py      :     5.715881
      dz2     :     2.107310  d :    10.195658
      dxz     :     2.039906
      dyz     :     2.039906
      dx2y2   :     2.004274
      dxy     :     2.004262
      f0      :     0.067227  f :     0.147190
      f+1     :     0.034347
      f-1     :     0.034347
      f+2     :     0.005639
      f-2     :     0.005630
      f+3     :     0.000000
      f-3     :     0.000000


                      *****************************
                      * MAYER POPULATION ANALYSIS *
                      *****************************

  NA   - Mulliken gross atomic population
  ZA   - Total nuclear charge
  QA   - Mulliken gross atomic charge
  VA   - Mayer's total valence
  BVA  - Mayer's bonded valence
  FA   - Mayer's free valence

  ATOM       NA         ZA         QA         VA         BVA        FA
  0 Cu    28.6314    29.0000     0.3686     1.2506     1.2506    -0.0000
  1 Br    35.3686    35.0000    -0.3686     1.2506     1.2506    -0.0000

  Mayer bond orders larger than 0.100000
B(  0-Cu,  1-Br) :   1.2506 

-------
TIMINGS
-------

Total SCF time: 0 days 0 hours 0 min 3 sec 

Total time                  ....       3.163 sec
Sum of individual times     ....       3.030 sec  ( 95.8%)

Fock matrix formation       ....       2.634 sec  ( 83.3%)
  Split-RI-J                ....       2.011 sec  ( 76.3% of F)
  XC integration            ....       0.572 sec  ( 21.7% of F)
    Basis function eval.    ....       0.069 sec  ( 12.0% of XC)
    Density eval.           ....       0.037 sec  (  6.4% of XC)
    XC-Functional eval.     ....       0.013 sec  (  2.3% of XC)
    XC-Potential eval.      ....       0.095 sec  ( 16.5% of XC)
Diagonalization             ....       0.045 sec  (  1.4%)
Density matrix formation    ....       0.007 sec  (  0.2%)
Population analysis         ....       0.005 sec  (  0.2%)
Initial guess               ....       0.132 sec  (  4.2%)
Orbital Transformation      ....       0.000 sec  (  0.0%)
Orbital Orthonormalization  ....       0.000 sec  (  0.0%)
DIIS solution               ....       0.024 sec  (  0.8%)
Grid generation             ....       0.182 sec  (  5.8%)


-------------------------------------------------------------------------------
                          DFT DISPERSION CORRECTION                            
                                                                               
                              DFTD3 V3.1  Rev 1                                
                          USING Becke-Johnson damping                          
-------------------------------------------------------------------------------
The TPSS functional is recognized
Active option DFTDOPT                   ...         4   

molecular C6(AA) [au] = 681.835110 


            DFT-D V3
 parameters
 s6 scaling factor         :     1.0000 
 a1 scaling factor         :     0.4535 
 s8 scaling factor         :     1.9435 
 a2 scaling factor         :     4.4752 
 ad hoc parameters k1-k3   :    16.0000     1.3333    -4.0000 

 Edisp/kcal,au: -0.952042660062  -0.001517176390 
 E6   /kcal   :  -0.313837612 
 E8   /kcal   :  -0.638205048 
 % E8         :  67.035341456 

-------------------------   ----------------
Dispersion correction           -0.001517176
-------------------------   ----------------


-------------------------   --------------------
FINAL SINGLE POINT ENERGY     -4214.745322124052
-------------------------   --------------------



           ************************************************************
           *        Program running with 24 parallel MPI-processes    *
           *              working on a common directory               *
           ************************************************************
------------------------------------------------------------------------------
                         ORCA SCF GRADIENT CALCULATION
------------------------------------------------------------------------------

Gradient of the Kohn-Sham DFT energy:
Kohn-Sham wavefunction type      ... RKS
Hartree-Fock exchange scaling    ...    0.000
Number of operators              ...    1
Number of atoms                  ...    2
Basis set dimensions             ...  152
Integral neglect threshold       ... 2.5e-11
Integral primitive cutoff        ... 2.5e-12

Nuclear repulsion gradient       ... done
One Electron Gradient            ... done
Pre-screening matrix             ... done
RI-J gradient                    ... done
Exchange-correlation gradient    ... done
Dispersion correction            ... done

------------------
CARTESIAN GRADIENT
------------------

   1   Cu  :    0.000000004    0.000000007    0.071174915
   2   Br  :    0.000000006   -0.000000007   -0.071140319

Difference to translation invariance:
           :    0.0000000097    0.0000000002    0.0000345969

Norm of the cartesian gradient     ...    0.1006320699
RMS gradient                       ...    0.0410828705
MAX gradient                       ...    0.0711749154

-------
TIMINGS
-------

Total SCF gradient time            ...        4.553 sec

One electron gradient       ....       0.066 sec  (  1.4%)
Prescreening matrices       ....       3.568 sec  ( 78.4%)
RI-J Coulomb gradient       ....       0.341 sec  (  7.5%)
XC gradient                 ....       0.051 sec  (  1.1%)
------------------------------------------------------------------------------
                         ORCA GEOMETRY RELAXATION STEP
------------------------------------------------------------------------------

Reading the OPT-File                    .... done
Getting information on internals        .... done
Copying old internal coords+grads       .... done
Making the new internal coordinates     .... (new redundants).... done
Validating the new internal coordinates .... (new redundants).... done
Calculating the B-matrix                .... done
Calculating the G,G- and P matrices     .... done
Transforming gradient to internals      .... done
Projecting the internal gradient        .... done
Number of atoms                         ....   2
Number of internal coordinates          ....   1
Current Energy                          .... -4214.745322124 Eh
Current gradient norm                   ....     0.100632070 Eh/bohr
Maximum allowed component of the step   ....  0.300
Current trust radius                    ....  0.300
Evaluating the initial hessian          ....  (Almloef) done
Projecting the Hessian                  .... done
Forming the augmented Hessian           .... done
Diagonalizing the augmented Hessian     .... done
Last element of RFO vector              ....  0.999505748
Lowest eigenvalues of augmented Hessian:
 -0.002238060
Length of the computed step             ....  0.031452150
The final length of the internal step   ....  0.031452150
Converting the step to cartesian space:
 Initial RMS(Int)=    0.0314521503
Transforming coordinates:
 Iter   0:  RMS(Cart)=    0.0090794537 RMS(Int)=    0.0314521503
 Iter   1:  RMS(Cart)=    0.0000000000 RMS(Int)=    0.0000000000
done
Storing new coordinates                 .... done

                                .--------------------.
          ----------------------|Geometry convergence|-------------------------
          Item                value                   Tolerance       Converged
          ---------------------------------------------------------------------
          RMS gradient        0.0711576170            0.0001000000      NO
          MAX gradient        0.0711576170            0.0003000000      NO
          RMS step            0.0314521503            0.0020000000      NO
          MAX step            0.0314521503            0.0040000000      NO
          ........................................................
          Max(Bonds)      0.0166      Max(Angles)    0.00
          Max(Dihed)        0.00      Max(Improp)    0.00
          ---------------------------------------------------------------------

The optimization has not yet converged - more geometry cycles are needed


    ---------------------------------------------------------------------------
                         Redundant Internal Coordinates
                            (Angstroem and degrees)

        Definition                    Value    dE/dq     Step     New-Value
    ----------------------------------------------------------------------------
     1. B(Br  1,Cu  0)                2.0000 -0.071158  0.0166    2.0166   
    ----------------------------------------------------------------------------

         *************************************************************
         *                GEOMETRY OPTIMIZATION CYCLE   2            *
         *************************************************************
---------------------------------
CARTESIAN COORDINATES (ANGSTROEM)
---------------------------------
  Cu     0.000000    0.000000   -0.008322
  Br     0.000000    0.000000    2.008322

----------------------------
CARTESIAN COORDINATES (A.U.)
----------------------------
  NO LB      ZA    FRAG     MASS         X           Y           Z
   0 Cu   29.0000    0    63.550    0.000000    0.000000   -0.015726
   1 Br   35.0000    0    79.900    0.000000    0.000000    3.795178

--------------------------------
INTERNAL COORDINATES (ANGSTROEM)
--------------------------------
 Cu     0   0   0     0.000000000000     0.00000000     0.00000000
 Br     1   0   0     2.016643761085     0.00000000     0.00000000

---------------------------
INTERNAL COORDINATES (A.U.)
---------------------------
 Cu     0   0   0     0.000000000000     0.00000000     0.00000000
 Br     1   0   0     3.810904418131     0.00000000     0.00000000



           ************************************************************
           *        Program running with 24 parallel MPI-processes    *
           *              working on a common directory               *
           ************************************************************
 One Electron integrals                  ... done
 Pre-screening matrix                    ... done


           ************************************************************
           *        Program running with 24 parallel MPI-processes    *
           *              working on a common directory               *
           ************************************************************

Diagonalization of the overlap matrix:
Smallest eigenvalue                        ... 1.281e-04
Time for diagonalization                   ...    0.006 sec
Threshold for overlap eigenvalues          ... 1.000e-08
Number of eigenvalues below threshold      ... 0
Time for construction of square roots      ...    0.002 sec
Total time needed                          ...    0.009 sec

-------------------
DFT GRID GENERATION
-------------------

General Integration Accuracy     IntAcc      ...  4.340
Radial Grid Type                 RadialGrid  ... Gauss-Chebyshev
Angular Grid (max. acc.)         AngularGrid ... Lebedev-110
Angular grid pruning method      GridPruning ... 3 (G Style)
Weight generation scheme         WeightScheme... Becke
Basis function cutoff            BFCut       ...    1.0000e-11
Integration weight cutoff        WCut        ...    1.0000e-14
Grids for H and He will be reduced by one unit

# of grid points (after initial pruning)     ...   5802 (   0.0 sec)
# of grid points (after weights+screening)   ...   5776 (   0.0 sec)
nearest neighbour list constructed           ...    0.0 sec
Grid point re-assignment to atoms done       ...    0.0 sec
Grid point division into batches done        ...    0.0 sec
Reduced shell lists constructed in    0.0 sec

Total number of grid points                  ...     5776
Total number of batches                      ...       91
Average number of points per batch           ...       63
Average number of grid points per atom       ...     2888
Average number of shells per batch           ...    24.00 (54.55%)
Average number of basis functions per batch  ...    65.60 (43.16%)
Average number of large shells per batch     ...    16.80 (70.00%)
Average number of large basis fcns per batch ...    47.20 (71.95%)
Maximum spatial batch extension              ...  17.39, 26.34, 14.81 au
Average spatial batch extension              ...   0.70,  0.97,  0.65 au

Time for grid setup =    0.035 sec

--------------
SCF ITERATIONS
--------------
ITER       Energy         Delta-E        Max-DP      RMS-DP      [F,P]     Damp
               ***  Starting incremental Fock matrix formation  ***
  0  -4214.7410026288   0.000000000000 0.00164758  0.00004416  0.0106487 0.7000
  1  -4214.7410137273  -0.000011098506 0.00131460  0.00003507  0.0074662 0.7000
                               ***Turning on DIIS***
  2  -4214.7410211596  -0.000007432316 0.00341446  0.00008289  0.0052259 0.0000
  3  -4214.7410379232  -0.000016763549 0.00081527  0.00001295  0.0004505 0.0000
  4  -4214.7410379569  -0.000000033736 0.00036701  0.00000706  0.0004998 0.0000
  5  -4214.7410382799  -0.000000323036 0.00022083  0.00000299  0.0004499 0.0000
  6  -4214.7410384642  -0.000000184238 0.00004640  0.00000090  0.0001355 0.0000
  7  -4214.7410384508   0.000000013428 0.00002434  0.00000037  0.0000118 0.0000
  8  -4214.7410384499   0.000000000861 0.00001064  0.00000016  0.0000099 0.0000
  9  -4214.7410384010   0.000000048919 0.00000909  0.00000014  0.0000026 0.0000
                            ***DIIS convergence achieved***

               *****************************************************
               *                     SUCCESS                       *
               *           SCF CONVERGED AFTER  10 CYCLES          *
               *****************************************************

Setting up the final grid:

General Integration Accuracy     IntAcc      ...  4.670
Radial Grid Type                 RadialGrid  ... Gauss-Chebyshev
Angular Grid (max. acc.)         AngularGrid ... Lebedev-302
Angular grid pruning method      GridPruning ... 3 (G Style)
Weight generation scheme         WeightScheme... Becke
Basis function cutoff            BFCut       ...    1.0000e-11
Integration weight cutoff        WCut        ...    1.0000e-14
Grids for H and He will be reduced by one unit

# of grid points (after initial pruning)     ...  19172 (   0.0 sec)
# of grid points (after weights+screening)   ...  19144 (   0.0 sec)
nearest neighbour list constructed           ...    0.0 sec
Grid point re-assignment to atoms done       ...    0.0 sec
Grid point division into batches done        ...    0.1 sec
Reduced shell lists constructed in    0.1 sec

Total number of grid points                  ...    19144
Total number of batches                      ...      300
Average number of points per batch           ...       63
Average number of grid points per atom       ...     9572
Average number of shells per batch           ...    17.79 (40.42%)
Average number of basis functions per batch  ...    43.50 (28.62%)
Average number of large shells per batch     ...     9.71 (54.62%)
Average number of large basis fcns per batch ...    22.71 (52.22%)
Maximum spatial batch extension              ...  22.45, 22.17, 16.62 au
Average spatial batch extension              ...   0.78,  0.77,  0.63 au

Final grid set up in    0.2 sec
Final integration                            ... done (   0.1 sec)
Change in XC energy                          ...    -0.004866009
Integrated number of electrons               ...    64.000017609
Previous integrated no of electrons          ...    63.999821481
Total Energy       :        -4214.74590448 Eh         -114689.06674 eV
  Last Energy change         ...   -7.1384e-08  Tolerance :   1.0000e-08
  Last MAX-Density change    ...    3.6411e-06  Tolerance :   1.0000e-07
             **** THE GBW FILE WAS UPDATED (52_CuBr.gbw) ****
             **** DENSITY FILE WAS UPDATED (52_CuBr.scfp) ****
             **** ENERGY FILE WAS UPDATED (52_CuBr.en.tmp) ****
             **** THE GBW FILE WAS UPDATED (52_CuBr.gbw) ****
             **** DENSITY FILE WAS UPDATED (52_CuBr.scfp) ****
Total SCF time: 0 days 0 hours 0 min 2 sec 


-------------------------------------------------------------------------------
                          DFT DISPERSION CORRECTION                            
                                                                               
                              DFTD3 V3.1  Rev 1                                
                          USING Becke-Johnson damping                          
-------------------------------------------------------------------------------
-------------------------   ----------------
Dispersion correction           -0.001516841
-------------------------   ----------------


-------------------------   --------------------
FINAL SINGLE POINT ENERGY     -4214.747421322827
-------------------------   --------------------



           ************************************************************
           *        Program running with 24 parallel MPI-processes    *
           *              working on a common directory               *
           ************************************************************
------------------------------------------------------------------------------
                         ORCA SCF GRADIENT CALCULATION
------------------------------------------------------------------------------

Gradient of the Kohn-Sham DFT energy:
Kohn-Sham wavefunction type      ... RKS
Hartree-Fock exchange scaling    ...    0.000
Number of operators              ...    1
Number of atoms                  ...    2
Basis set dimensions             ...  152
Integral neglect threshold       ... 2.5e-11
Integral primitive cutoff        ... 2.5e-12

Nuclear repulsion gradient       ... done
One Electron Gradient            ... done
Pre-screening matrix             ... done
RI-J gradient                    ... done
Exchange-correlation gradient    ... done
Dispersion correction            ... done

------------------
CARTESIAN GRADIENT
------------------

   1   Cu  :    0.000000003    0.000000004    0.062391652
   2   Br  :   -0.000000002    0.000000004   -0.062122833

Difference to translation invariance:
           :    0.0000000018    0.0000000078    0.0002688184

Norm of the cartesian gradient     ...    0.0880452420
RMS gradient                       ...    0.0359443195
MAX gradient                       ...    0.0623916518

-------
TIMINGS
-------

Total SCF gradient time            ...        4.552 sec

One electron gradient       ....       0.057 sec  (  1.3%)
Prescreening matrices       ....       3.562 sec  ( 78.2%)
RI-J Coulomb gradient       ....       0.344 sec  (  7.6%)
XC gradient                 ....       0.045 sec  (  1.0%)
------------------------------------------------------------------------------
                         ORCA GEOMETRY RELAXATION STEP
------------------------------------------------------------------------------

Reading the OPT-File                    .... done
Getting information on internals        .... done
Copying old internal coords+grads       .... done
Making the new internal coordinates     .... (new redundants).... done
Validating the new internal coordinates .... (new redundants).... done
Calculating the B-matrix                .... done
Calculating the G,G- and P matrices     .... done
Transforming gradient to internals      .... done
Projecting the internal gradient        .... done
Number of atoms                         ....   2
Number of internal coordinates          ....   1
Current Energy                          .... -4214.747421323 Eh
Current gradient norm                   ....     0.088045242 Eh/bohr
Maximum allowed component of the step   ....  0.300
Current trust radius                    ....  0.300
Updating the Hessian (BFGS)             .... done
Forming the augmented Hessian           .... done
Diagonalizing the augmented Hessian     .... done
Last element of RFO vector              ....  0.978598964
Lowest eigenvalues of augmented Hessian:
 -0.013091259
Length of the computed step             ....  0.210276887
The final length of the internal step   ....  0.210276887
Converting the step to cartesian space:
 Initial RMS(Int)=    0.2102768868
Transforming coordinates:
 Iter   0:  RMS(Cart)=    0.0577350269 RMS(Int)=    0.2000000000
 Iter   1:  RMS(Cart)=    0.0029666817 RMS(Int)=    0.0102768868
 Iter   2:  RMS(Cart)=    0.0000000000 RMS(Int)=    0.0000000000
done
Storing new coordinates                 .... done

                                .--------------------.
          ----------------------|Geometry convergence|-------------------------
          Item                value                   Tolerance       Converged
          ---------------------------------------------------------------------
          Energy change      -0.0020991988            0.0000050000      NO
          RMS gradient        0.0622572426            0.0001000000      NO
          MAX gradient        0.0622572426            0.0003000000      NO
          RMS step            0.2102768868            0.0020000000      NO
          MAX step            0.2102768868            0.0040000000      NO
          ........................................................
          Max(Bonds)      0.1113      Max(Angles)    0.00
          Max(Dihed)        0.00      Max(Improp)    0.00
          ---------------------------------------------------------------------

The optimization has not yet converged - more geometry cycles are needed


    ---------------------------------------------------------------------------
                         Redundant Internal Coordinates
                            (Angstroem and degrees)

        Definition                    Value    dE/dq     Step     New-Value
    ----------------------------------------------------------------------------
     1. B(Br  1,Cu  0)                2.0166 -0.062257  0.1113    2.1279   
    ----------------------------------------------------------------------------

         *************************************************************
         *                GEOMETRY OPTIMIZATION CYCLE   3            *
         *************************************************************
---------------------------------
CARTESIAN COORDINATES (ANGSTROEM)
---------------------------------
  Cu     0.000000    0.000000   -0.063959
  Br     0.000000    0.000000    2.063959

----------------------------
CARTESIAN COORDINATES (A.U.)
----------------------------
  NO LB      ZA    FRAG     MASS         X           Y           Z
   0 Cu   29.0000    0    63.550    0.000000    0.000000   -0.120865
   1 Br   35.0000    0    79.900    0.000000    0.000000    3.900317

--------------------------------
INTERNAL COORDINATES (ANGSTROEM)
--------------------------------
 Cu     0   0   0     0.000000000000     0.00000000     0.00000000
 Br     1   0   0     2.127917497024     0.00000000     0.00000000

---------------------------
INTERNAL COORDINATES (A.U.)
---------------------------
 Cu     0   0   0     0.000000000000     0.00000000     0.00000000
 Br     1   0   0     4.021181304955     0.00000000     0.00000000



           ************************************************************
           *        Program running with 24 parallel MPI-processes    *
           *              working on a common directory               *
           ************************************************************
 One Electron integrals                  ... done
 Pre-screening matrix                    ... done


           ************************************************************
           *        Program running with 24 parallel MPI-processes    *
           *              working on a common directory               *
           ************************************************************

Diagonalization of the overlap matrix:
Smallest eigenvalue                        ... 1.622e-04
Time for diagonalization                   ...    0.006 sec
Threshold for overlap eigenvalues          ... 1.000e-08
Number of eigenvalues below threshold      ... 0
Time for construction of square roots      ...    0.002 sec
Total time needed                          ...    0.009 sec

-------------------
DFT GRID GENERATION
-------------------

General Integration Accuracy     IntAcc      ...  4.340
Radial Grid Type                 RadialGrid  ... Gauss-Chebyshev
Angular Grid (max. acc.)         AngularGrid ... Lebedev-110
Angular grid pruning method      GridPruning ... 3 (G Style)
Weight generation scheme         WeightScheme... Becke
Basis function cutoff            BFCut       ...    1.0000e-11
Integration weight cutoff        WCut        ...    1.0000e-14
Grids for H and He will be reduced by one unit

# of grid points (after initial pruning)     ...   5802 (   0.0 sec)
# of grid points (after weights+screening)   ...   5777 (   0.0 sec)
nearest neighbour list constructed           ...    0.0 sec
Grid point re-assignment to atoms done       ...    0.0 sec
Grid point division into batches done        ...    0.0 sec
Reduced shell lists constructed in    0.0 sec

Total number of grid points                  ...     5777
Total number of batches                      ...       91
Average number of points per batch           ...       63
Average number of grid points per atom       ...     2888
Average number of shells per batch           ...    23.60 (53.64%)
Average number of basis functions per batch  ...    64.40 (42.37%)
Average number of large shells per batch     ...    16.80 (71.19%)
Average number of large basis fcns per batch ...    47.20 (73.29%)
Maximum spatial batch extension              ...  17.39, 26.34, 15.01 au
Average spatial batch extension              ...   0.70,  0.97,  0.66 au

Time for grid setup =    0.028 sec

--------------
SCF ITERATIONS
--------------
ITER       Energy         Delta-E        Max-DP      RMS-DP      [F,P]     Damp
               ***  Starting incremental Fock matrix formation  ***
  0  -4214.7477473730   0.000000000000 0.00906398  0.00025550  0.0733278 0.7000
  1  -4214.7481786460  -0.000431272923 0.00732334  0.00020619  0.0513923 0.7000
                               ***Turning on DIIS***
  2  -4214.7484744118  -0.000295765814 0.01924133  0.00048928  0.0359551 0.0000
  3  -4214.7491312776  -0.000656865775 0.00305636  0.00005494  0.0027263 0.0000
  4  -4214.7491471449  -0.000015867338 0.00095110  0.00002193  0.0015344 0.0000
  5  -4214.7491525736  -0.000005428734 0.00169308  0.00002230  0.0003169 0.0000
  6  -4214.7491534304  -0.000000856762 0.00035748  0.00000515  0.0001785 0.0000
  7  -4214.7491535034  -0.000000073038 0.00020475  0.00000298  0.0003085 0.0000
  8  -4214.7491536722  -0.000000168792 0.00010022  0.00000152  0.0002111 0.0000
  9  -4214.7491536217   0.000000050479 0.00004574  0.00000082  0.0000494 0.0000
 10  -4214.7491535337   0.000000087999 0.00001383  0.00000019  0.0000122 0.0000
 11  -4214.7491535210   0.000000012780 0.00001040  0.00000014  0.0000018 0.0000
                            ***DIIS convergence achieved***

               *****************************************************
               *                     SUCCESS                       *
               *           SCF CONVERGED AFTER  12 CYCLES          *
               *****************************************************

Setting up the final grid:

General Integration Accuracy     IntAcc      ...  4.670
Radial Grid Type                 RadialGrid  ... Gauss-Chebyshev
Angular Grid (max. acc.)         AngularGrid ... Lebedev-302
Angular grid pruning method      GridPruning ... 3 (G Style)
Weight generation scheme         WeightScheme... Becke
Basis function cutoff            BFCut       ...    1.0000e-11
Integration weight cutoff        WCut        ...    1.0000e-14
Grids for H and He will be reduced by one unit

# of grid points (after initial pruning)     ...  19172 (   0.0 sec)
# of grid points (after weights+screening)   ...  19144 (   0.0 sec)
nearest neighbour list constructed           ...    0.0 sec
Grid point re-assignment to atoms done       ...    0.0 sec
Grid point division into batches done        ...    0.1 sec
Reduced shell lists constructed in    0.1 sec

Total number of grid points                  ...    19144
Total number of batches                      ...      300
Average number of points per batch           ...       63
Average number of grid points per atom       ...     9572
Average number of shells per batch           ...    17.57 (39.94%)
Average number of basis functions per batch  ...    42.71 (28.10%)
Average number of large shells per batch     ...     9.57 (54.47%)
Average number of large basis fcns per batch ...    22.29 (52.17%)
Maximum spatial batch extension              ...  22.45, 22.17, 16.62 au
Average spatial batch extension              ...   0.78,  0.77,  0.63 au

Final grid set up in    0.2 sec
Final integration                            ... done (   0.1 sec)
Change in XC energy                          ...    -0.004671662
Integrated number of electrons               ...    64.000010541
Previous integrated no of electrons          ...    63.999775009
Total Energy       :        -4214.75382520 Eh         -114689.28227 eV
  Last Energy change         ...   -1.2071e-08  Tolerance :   1.0000e-08
  Last MAX-Density change    ...    2.1501e-06  Tolerance :   1.0000e-07
             **** THE GBW FILE WAS UPDATED (52_CuBr.gbw) ****
             **** DENSITY FILE WAS UPDATED (52_CuBr.scfp) ****
             **** ENERGY FILE WAS UPDATED (52_CuBr.en.tmp) ****
             **** THE GBW FILE WAS UPDATED (52_CuBr.gbw) ****
             **** DENSITY FILE WAS UPDATED (52_CuBr.scfp) ****
Total SCF time: 0 days 0 hours 0 min 2 sec 


-------------------------------------------------------------------------------
                          DFT DISPERSION CORRECTION                            
                                                                               
                              DFTD3 V3.1  Rev 1                                
                          USING Becke-Johnson damping                          
-------------------------------------------------------------------------------
-------------------------   ----------------
Dispersion correction           -0.001514221
-------------------------   ----------------


-------------------------   --------------------
FINAL SINGLE POINT ENERGY     -4214.755339416222
-------------------------   --------------------



           ************************************************************
           *        Program running with 24 parallel MPI-processes    *
           *              working on a common directory               *
           ************************************************************
------------------------------------------------------------------------------
                         ORCA SCF GRADIENT CALCULATION
------------------------------------------------------------------------------

Gradient of the Kohn-Sham DFT energy:
Kohn-Sham wavefunction type      ... RKS
Hartree-Fock exchange scaling    ...    0.000
Number of operators              ...    1
Number of atoms                  ...    2
Basis set dimensions             ...  152
Integral neglect threshold       ... 2.5e-11
Integral primitive cutoff        ... 2.5e-12

Nuclear repulsion gradient       ... done
One Electron Gradient            ... done
Pre-screening matrix             ... done
RI-J gradient                    ... done
Exchange-correlation gradient    ... done
Dispersion correction            ... done

------------------
CARTESIAN GRADIENT
------------------

   1   Cu  :    0.000000017    0.000000006    0.017374297
   2   Br  :   -0.000000012   -0.000000008   -0.017464240

Difference to translation invariance:
           :    0.0000000052   -0.0000000024   -0.0000899431

Norm of the cartesian gradient     ...    0.0246346481
RMS gradient                       ...    0.0100570530
MAX gradient                       ...    0.0174642403

-------
TIMINGS
-------

Total SCF gradient time            ...        4.528 sec

One electron gradient       ....       0.066 sec  (  1.4%)
Prescreening matrices       ....       3.542 sec  ( 78.2%)
RI-J Coulomb gradient       ....       0.330 sec  (  7.3%)
XC gradient                 ....       0.047 sec  (  1.0%)
------------------------------------------------------------------------------
                         ORCA GEOMETRY RELAXATION STEP
------------------------------------------------------------------------------

Reading the OPT-File                    .... done
Getting information on internals        .... done
Copying old internal coords+grads       .... done
Making the new internal coordinates     .... (new redundants).... done
Validating the new internal coordinates .... (new redundants).... done
Calculating the B-matrix                .... done
Calculating the G,G- and P matrices     .... done
Transforming gradient to internals      .... done
Projecting the internal gradient        .... done
Number of atoms                         ....   2
Number of internal coordinates          ....   1
Current Energy                          .... -4214.755339416 Eh
Current gradient norm                   ....     0.024634648 Eh/bohr
Maximum allowed component of the step   ....  0.300
Current trust radius                    ....  0.300
Updating the Hessian (BFGS)             .... done
Forming the augmented Hessian           .... done
Diagonalizing the augmented Hessian     .... done
Last element of RFO vector              ....  0.996723253
Lowest eigenvalues of augmented Hessian:
 -0.001413630
Length of the computed step             ....  0.081153232
The final length of the internal step   ....  0.081153232
Converting the step to cartesian space:
 Initial RMS(Int)=    0.0811532318
Transforming coordinates:
 Iter   0:  RMS(Cart)=    0.0234269201 RMS(Int)=    0.0811532318
 Iter   1:  RMS(Cart)=    0.0000000000 RMS(Int)=    0.0000000000
done
Storing new coordinates                 .... done

                                .--------------------.
          ----------------------|Geometry convergence|-------------------------
          Item                value                   Tolerance       Converged
          ---------------------------------------------------------------------
          Energy change      -0.0079180934            0.0000050000      NO
          RMS gradient        0.0174192687            0.0001000000      NO
          MAX gradient        0.0174192687            0.0003000000      NO
          RMS step            0.0811532318            0.0020000000      NO
          MAX step            0.0811532318            0.0040000000      NO
          ........................................................
          Max(Bonds)      0.0429      Max(Angles)    0.00
          Max(Dihed)        0.00      Max(Improp)    0.00
          ---------------------------------------------------------------------

The optimization has not yet converged - more geometry cycles are needed


    ---------------------------------------------------------------------------
                         Redundant Internal Coordinates
                            (Angstroem and degrees)

        Definition                    Value    dE/dq     Step     New-Value
    ----------------------------------------------------------------------------
     1. B(Br  1,Cu  0)                2.1279 -0.017419  0.0429    2.1709   
    ----------------------------------------------------------------------------

         *************************************************************
         *                GEOMETRY OPTIMIZATION CYCLE   4            *
         *************************************************************
---------------------------------
CARTESIAN COORDINATES (ANGSTROEM)
---------------------------------
  Cu     0.000000    0.000000   -0.085431
  Br     0.000000    0.000000    2.085431

----------------------------
CARTESIAN COORDINATES (A.U.)
----------------------------
  NO LB      ZA    FRAG     MASS         X           Y           Z
   0 Cu   29.0000    0    63.550    0.000000    0.000000   -0.161441
   1 Br   35.0000    0    79.900    0.000000    0.000000    3.940893

--------------------------------
INTERNAL COORDINATES (ANGSTROEM)
--------------------------------
 Cu     0   0   0     0.000000000000     0.00000000     0.00000000
 Br     1   0   0     2.170861937675     0.00000000     0.00000000

---------------------------
INTERNAL COORDINATES (A.U.)
---------------------------
 Cu     0   0   0     0.000000000000     0.00000000     0.00000000
 Br     1   0   0     4.102334536759     0.00000000     0.00000000



           ************************************************************
           *        Program running with 24 parallel MPI-processes    *
           *              working on a common directory               *
           ************************************************************
 One Electron integrals                  ... done
 Pre-screening matrix                    ... done


           ************************************************************
           *        Program running with 24 parallel MPI-processes    *
           *              working on a common directory               *
           ************************************************************

Diagonalization of the overlap matrix:
Smallest eigenvalue                        ... 1.767e-04
Time for diagonalization                   ...    0.004 sec
Threshold for overlap eigenvalues          ... 1.000e-08
Number of eigenvalues below threshold      ... 0
Time for construction of square roots      ...    0.002 sec
Total time needed                          ...    0.007 sec

-------------------
DFT GRID GENERATION
-------------------

General Integration Accuracy     IntAcc      ...  4.340
Radial Grid Type                 RadialGrid  ... Gauss-Chebyshev
Angular Grid (max. acc.)         AngularGrid ... Lebedev-110
Angular grid pruning method      GridPruning ... 3 (G Style)
Weight generation scheme         WeightScheme... Becke
Basis function cutoff            BFCut       ...    1.0000e-11
Integration weight cutoff        WCut        ...    1.0000e-14
Grids for H and He will be reduced by one unit

# of grid points (after initial pruning)     ...   5802 (   0.0 sec)
# of grid points (after weights+screening)   ...   5778 (   0.0 sec)
nearest neighbour list constructed           ...    0.0 sec
Grid point re-assignment to atoms done       ...    0.0 sec
Grid point division into batches done        ...    0.0 sec
Reduced shell lists constructed in    0.0 sec

Total number of grid points                  ...     5778
Total number of batches                      ...       91
Average number of points per batch           ...       63
Average number of grid points per atom       ...     2889
Average number of shells per batch           ...    23.60 (53.64%)
Average number of basis functions per batch  ...    64.40 (42.37%)
Average number of large shells per batch     ...    16.80 (71.19%)
Average number of large basis fcns per batch ...    47.20 (73.29%)
Maximum spatial batch extension              ...  17.39, 26.34, 15.09 au
Average spatial batch extension              ...   0.70,  0.97,  0.66 au

Time for grid setup =    0.027 sec

--------------
SCF ITERATIONS
--------------
ITER       Energy         Delta-E        Max-DP      RMS-DP      [F,P]     Damp
               ***  Starting incremental Fock matrix formation  ***
  0  -4214.7498345843   0.000000000000 0.00290822  0.00008423  0.0265932 0.7000
  1  -4214.7498853896  -0.000050805310 0.00282662  0.00006889  0.0186390 0.7000
                               ***Turning on DIIS***
  2  -4214.7499196972  -0.000034307612 0.00656681  0.00016289  0.0130408 0.0000
  3  -4214.7499954116  -0.000075714420 0.00232382  0.00003537  0.0009170 0.0000
  4  -4214.7499953180   0.000000093633 0.00096592  0.00001840  0.0009825 0.0000
  5  -4214.7499978464  -0.000002528383 0.00021752  0.00000458  0.0012185 0.0000
  6  -4214.7499988710  -0.000001024598 0.00037624  0.00000492  0.0001162 0.0000
  7  -4214.7499987936   0.000000077373 0.00007026  0.00000123  0.0002340 0.0000
  8  -4214.7499987220   0.000000071560 0.00002947  0.00000048  0.0000847 0.0000
  9  -4214.7499986963   0.000000025724 0.00002328  0.00000037  0.0000206 0.0000
 10  -4214.7499986253   0.000000070985 0.00003743  0.00000050  0.0000156 0.0000
 11  -4214.7499986721  -0.000000046783 0.00001899  0.00000024  0.0000028 0.0000
                            ***DIIS convergence achieved***

               *****************************************************
               *                     SUCCESS                       *
               *           SCF CONVERGED AFTER  12 CYCLES          *
               *****************************************************

Setting up the final grid:

General Integration Accuracy     IntAcc      ...  4.670
Radial Grid Type                 RadialGrid  ... Gauss-Chebyshev
Angular Grid (max. acc.)         AngularGrid ... Lebedev-302
Angular grid pruning method      GridPruning ... 3 (G Style)
Weight generation scheme         WeightScheme... Becke
Basis function cutoff            BFCut       ...    1.0000e-11
Integration weight cutoff        WCut        ...    1.0000e-14
Grids for H and He will be reduced by one unit

# of grid points (after initial pruning)     ...  19172 (   0.0 sec)
# of grid points (after weights+screening)   ...  19144 (   0.0 sec)
nearest neighbour list constructed           ...    0.0 sec
Grid point re-assignment to atoms done       ...    0.0 sec
Grid point division into batches done        ...    0.1 sec
Reduced shell lists constructed in    0.1 sec

Total number of grid points                  ...    19144
Total number of batches                      ...      300
Average number of points per batch           ...       63
Average number of grid points per atom       ...     9572
Average number of shells per batch           ...    17.57 (39.94%)
Average number of basis functions per batch  ...    42.71 (28.10%)
Average number of large shells per batch     ...     9.57 (54.47%)
Average number of large basis fcns per batch ...    22.29 (52.17%)
Maximum spatial batch extension              ...  22.45, 22.17, 16.62 au
Average spatial batch extension              ...   0.78,  0.77,  0.63 au

Final grid set up in    0.2 sec
Final integration                            ... done (   0.1 sec)
Change in XC energy                          ...    -0.004714328
Integrated number of electrons               ...    64.000007000
Previous integrated no of electrons          ...    63.999763235
Total Energy       :        -4214.75471296 Eh         -114689.30643 eV
  Last Energy change         ...    3.6048e-08  Tolerance :   1.0000e-08
  Last MAX-Density change    ...    2.9902e-06  Tolerance :   1.0000e-07
             **** THE GBW FILE WAS UPDATED (52_CuBr.gbw) ****
             **** DENSITY FILE WAS UPDATED (52_CuBr.scfp) ****
             **** ENERGY FILE WAS UPDATED (52_CuBr.en.tmp) ****
             **** THE GBW FILE WAS UPDATED (52_CuBr.gbw) ****
             **** DENSITY FILE WAS UPDATED (52_CuBr.scfp) ****
Total SCF time: 0 days 0 hours 0 min 2 sec 


-------------------------------------------------------------------------------
                          DFT DISPERSION CORRECTION                            
                                                                               
[...]
  4  -4214.7500442013  -0.000000043695 0.00000109  0.00000003  0.0000024 0.0000
  5  -4214.7500441634   0.000000037832 0.00000076  0.00000001  0.0000014 0.0000
                            ***DIIS convergence achieved***

               *****************************************************
               *                     SUCCESS                       *
               *           SCF CONVERGED AFTER   6 CYCLES          *
               *****************************************************

Setting up the final grid:

General Integration Accuracy     IntAcc      ...  4.670
Radial Grid Type                 RadialGrid  ... Gauss-Chebyshev
Angular Grid (max. acc.)         AngularGrid ... Lebedev-302
Angular grid pruning method      GridPruning ... 3 (G Style)
Weight generation scheme         WeightScheme... Becke
Basis function cutoff            BFCut       ...    1.0000e-11
Integration weight cutoff        WCut        ...    1.0000e-14
Grids for H and He will be reduced by one unit

# of grid points (after initial pruning)     ...  19172 (   0.0 sec)
# of grid points (after weights+screening)   ...  19145 (   0.0 sec)
nearest neighbour list constructed           ...    0.0 sec
Grid point re-assignment to atoms done       ...    0.0 sec
Grid point division into batches done        ...    0.1 sec
Reduced shell lists constructed in    0.1 sec

Total number of grid points                  ...    19145
Total number of batches                      ...      300
Average number of points per batch           ...       63
Average number of grid points per atom       ...     9572
Average number of shells per batch           ...    17.79 (40.42%)
Average number of basis functions per batch  ...    43.50 (28.62%)
Average number of large shells per batch     ...     9.71 (54.62%)
Average number of large basis fcns per batch ...    22.71 (52.22%)
Maximum spatial batch extension              ...  22.45, 22.17, 16.42 au
Average spatial batch extension              ...   0.78,  0.77,  0.62 au

Final grid set up in    0.2 sec
Final integration                            ... done (   0.1 sec)
Change in XC energy                          ...    -0.004767596
Integrated number of electrons               ...    64.000009105
Previous integrated no of electrons          ...    63.999745221

----------------
TOTAL SCF ENERGY
----------------

Total Energy       :        -4214.75481177 Eh         -114689.30912 eV

Components:
Nuclear Repulsion  :          245.03308200 Eh            6667.68914 eV
Electronic Energy  :        -4459.78789377 Eh         -121356.99826 eV
One Electron Energy:        -6358.85085972 Eh         -173033.12873 eV
Two Electron Energy:         1899.06296595 Eh           51676.13047 eV

Virial components:
Potential Energy   :        -8423.24126277 Eh         -229208.04747 eV
Kinetic Energy     :         4208.48645100 Eh          114518.73835 eV
Virial Ratio       :            2.00148946


DFT components:
N(Alpha)           :       32.000004552655 electrons
N(Beta)            :       32.000004552655 electrons
N(Total)           :       64.000009105310 electrons
E(X)               :     -155.355859747791 Eh       
E(C)               :       -3.080958576574 Eh       
E(XC)              :     -158.436818324365 Eh       
DFET-embed. en.    :        0.000000000000 Eh       

---------------
SCF CONVERGENCE
---------------

  Last Energy change         ...   -1.2305e-08  Tolerance :   1.0000e-08
  Last MAX-Density change    ...    2.4638e-06  Tolerance :   1.0000e-07
  Last RMS-Density change    ...    3.2820e-08  Tolerance :   5.0000e-09
  Last DIIS Error            ...    6.0590e-07  Tolerance :   5.0000e-07

             **** THE GBW FILE WAS UPDATED (52_CuBr.gbw) ****
             **** DENSITY FILE WAS UPDATED (52_CuBr.scfp) ****
             **** ENERGY FILE WAS UPDATED (52_CuBr.en.tmp) ****
             **** THE GBW FILE WAS UPDATED (52_CuBr.gbw) ****
             **** DENSITY FILE WAS UPDATED (52_CuBr.scfp) ****
----------------
ORBITAL ENERGIES
----------------

  NO   OCC          E(Eh)            E(eV) 
   0   2.0000    -481.708446    -13107.9532 
   1   2.0000    -322.110279     -8765.0663 
   2   2.0000     -61.920900     -1684.9533 
   3   2.0000     -55.754780     -1517.1647 
   4   2.0000     -55.753011     -1517.1166 
   5   2.0000     -55.753011     -1517.1166 
   6   2.0000     -38.395546     -1044.7959 
   7   2.0000     -33.612903      -914.6536 
   8   2.0000     -33.612903      -914.6536 
   9   2.0000     -33.612677      -914.6474 
  10   2.0000      -8.447262      -229.8617 
  11   2.0000      -6.288490      -171.1185 
  12   2.0000      -6.281651      -170.9324 
  13   2.0000      -6.281651      -170.9324 
  14   2.0000      -4.177753      -113.6824 
  15   2.0000      -2.693659       -73.2982 
  16   2.0000      -2.687066       -73.1188 
  17   2.0000      -2.687066       -73.1188 
  18   2.0000      -2.456978       -66.8578 
  19   2.0000      -2.454844       -66.7997 
  20   2.0000      -2.454844       -66.7997 
  21   2.0000      -2.449898       -66.6651 
  22   2.0000      -2.449610       -66.6573 
  23   2.0000      -0.676320       -18.4036 
  24   2.0000      -0.313449        -8.5294 
  25   2.0000      -0.269517        -7.3339 
  26   2.0000      -0.269517        -7.3339 
  27   2.0000      -0.236471        -6.4347 
  28   2.0000      -0.236143        -6.4258 
  29   2.0000      -0.226388        -6.1603 
  30   2.0000      -0.216820        -5.9000 
  31   2.0000      -0.216820        -5.9000 
  32   0.0000      -0.134277        -3.6539 
  33   0.0000      -0.020827        -0.5667 
  34   0.0000      -0.020827        -0.5667 
  35   0.0000       0.006115         0.1664 
  36   0.0000       0.007870         0.2142 
  37   0.0000       0.034678         0.9436 
  38   0.0000       0.034678         0.9436 
  39   0.0000       0.062163         1.6915 
  40   0.0000       0.077636         2.1126 
  41   0.0000       0.077636         2.1126 
  42   0.0000       0.081298         2.2122 
  43   0.0000       0.113180         3.0798 
  44   0.0000       0.113407         3.0860 
  45   0.0000       0.118419         3.2223 
  46   0.0000       0.141187         3.8419 
  47   0.0000       0.151686         4.1276 
  48   0.0000       0.151686         4.1276 
  49   0.0000       0.198383         5.3983 
  50   0.0000       0.198383         5.3983 
  51   0.0000       0.209621         5.7041 
  52   0.0000       0.211749         5.7620 
  53   0.0000       0.211901         5.7661 
  54   0.0000       0.273774         7.4498 
  55   0.0000       0.296202         8.0601 
  56   0.0000       0.296202         8.0601 
  57   0.0000       0.332210         9.0399 
  58   0.0000       0.441344        12.0096 
  59   0.0000       0.441344        12.0096 
  60   0.0000       0.515510        14.0277 
  61   0.0000       0.529920        14.4199 
  62   0.0000       0.529982        14.4215 
  63   0.0000       0.547190        14.8898 
  64   0.0000       0.547190        14.8898 
  65   0.0000       0.550741        14.9864 
  66   0.0000       0.629207        17.1216 
  67   0.0000       0.629356        17.1257 
  68   0.0000       0.668513        18.1912 
  69   0.0000       0.725217        19.7342 
  70   0.0000       0.725217        19.7342 
  71   0.0000       0.730816        19.8865 
  72   0.0000       0.776202        21.1215 
  73   0.0000       0.776202        21.1215 
  74   0.0000       0.800190        21.7743 
  75   0.0000       0.800362        21.7790 
  76   0.0000       0.898268        24.4431 
  77   0.0000       0.909718        24.7547 
  78   0.0000       0.909718        24.7547 
  79   0.0000       1.002045        27.2670 
  80   0.0000       1.002045        27.2670 
  81   0.0000       1.102111        29.9900 
  82   0.0000       1.345353        36.6089 
  83   0.0000       1.398230        38.0478 
  84   0.0000       1.398230        38.0478 
  85   0.0000       1.494288        40.6616 
  86   0.0000       1.494390        40.6644 
  87   0.0000       1.680323        45.7239 
  88   0.0000       1.680323        45.7239 
  89   0.0000       1.764719        48.0204 
  90   0.0000       1.878982        51.1297 
  91   0.0000       1.878982        51.1297 
  92   0.0000       1.976375        53.7799 
  93   0.0000       1.977614        53.8136 
  94   0.0000       2.000659        54.4407 
  95   0.0000       2.018382        54.9230 
  96   0.0000       2.018382        54.9230 
  97   0.0000       2.036557        55.4175 
  98   0.0000       2.040975        55.5378 
  99   0.0000       2.070128        56.3310 
 100   0.0000       2.070128        56.3310 
 101   0.0000       2.087371        56.8003 
 102   0.0000       2.089031        56.8454 
 103   0.0000       2.117862        57.6299 
 104   0.0000       2.117862        57.6299 
 105   0.0000       2.159146        58.7533 
 106   0.0000       2.198942        59.8363 
 107   0.0000       2.198942        59.8363 
 108   0.0000       2.233749        60.7834 
 109   0.0000       2.706393        73.6447 
 110   0.0000       3.797063       103.3233 
 111   0.0000       4.071109       110.7805 
 112   0.0000       4.178884       113.7132 
 113   0.0000       4.178884       113.7132 
 114   0.0000       4.292623       116.8082 
 115   0.0000       4.292623       116.8082 
 116   0.0000       4.332126       117.8831 
 117   0.0000       4.337196       118.0211 
 118   0.0000       4.484963       122.0421 
 119   0.0000       4.489552       122.1669 
 120   0.0000       4.489552       122.1669 
 121   0.0000       4.830274       131.4384 
 122   0.0000       5.989484       162.9822 
 123   0.0000       5.993788       163.0993 
 124   0.0000       5.993788       163.0993 
 125   0.0000       5.998791       163.2354 
 126   0.0000       5.999018       163.2416 
 127   0.0000       5.999734       163.2611 
 128   0.0000       6.029559       164.0726 
 129   0.0000       6.029559       164.0726 
 130   0.0000       6.125191       166.6749 
 131   0.0000       7.809911       212.5185 
 132   0.0000       7.810094       212.5235 
 133   0.0000       7.848239       213.5614 
 134   0.0000       7.848239       213.5614 
 135   0.0000       8.157500       221.9768 
 136   0.0000      13.870703       377.4410 
 137   0.0000      13.870703       377.4410 
 138   0.0000      13.892699       378.0396 
 139   0.0000      13.893768       378.0686 
 140   0.0000      13.974794       380.2735 
 141   0.0000      13.974794       380.2735 
 142   0.0000      14.051478       382.3601 
 143   0.0000      16.443050       447.4381 
 144   0.0000      16.443075       447.4388 
 145   0.0000      16.443075       447.4388 
 146   0.0000      16.443787       447.4582 
 147   0.0000      16.444285       447.4717 
 148   0.0000      16.445100       447.4939 
 149   0.0000      16.459513       447.8861 
 150   0.0000      16.459513       447.8861 
 151   0.0000      16.490035       448.7167 

                    ********************************
                    * MULLIKEN POPULATION ANALYSIS *
                    ********************************

-----------------------
MULLIKEN ATOMIC CHARGES
-----------------------
   0 Cu:    0.496515
   1 Br:   -0.496515
Sum of atomic charges:    0.0000000

--------------------------------
MULLIKEN REDUCED ORBITAL CHARGES
--------------------------------
  0 Cus       :     6.496600  s :     6.496600
      pz      :     4.030268  p :    12.135327
      px      :     4.052529
      py      :     4.052529
      dz2     :     1.890815  d :     9.865737
      dxz     :     1.988857
      dyz     :     1.988857
      dx2y2   :     1.998604
      dxy     :     1.998604
      f0      :     0.002023  f :     0.005770
      f+1     :     0.001841
      f-1     :     0.001841
      f+2     :     0.000034
      f-2     :     0.000031
      f+3     :     0.000000
      f-3     :     0.000000
      g0      :     0.000024  g :     0.000051
      g+1     :     0.000013
      g-1     :     0.000013
      g+2     :     0.000001
      g-2     :     0.000001
      g+3     :     0.000000
      g-3     :     0.000000
      g+4     :     0.000000
      g-4     :     0.000000
  1 Brs       :     8.084679  s :     8.084679
      pz      :     5.489937  p :    17.380640
      px      :     5.945352
      py      :     5.945352
      dz2     :     2.004846  d :    10.025748
      dxz     :     2.009603
      dyz     :     2.009603
      dx2y2   :     2.000849
      dxy     :     2.000847
      f0      :     0.000808  f :     0.005447
      f+1     :     0.001805
      f-1     :     0.001805
      f+2     :     0.000513
      f-2     :     0.000517
      f+3     :     0.000000
      f-3     :     0.000000


                     *******************************
                     * LOEWDIN POPULATION ANALYSIS *
                     *******************************

----------------------
LOEWDIN ATOMIC CHARGES
----------------------
   0 Cu:   -0.072283
   1 Br:    0.072283

-------------------------------
LOEWDIN REDUCED ORBITAL CHARGES
-------------------------------
  0 Cus       :     6.479278  s :     6.479278
      pz      :     4.216458  p :    12.422904
      px      :     4.103223
      py      :     4.103223
      dz2     :     2.036311  d :    10.134104
      dxz     :     2.053819
      dyz     :     2.053819
      dx2y2   :     1.995074
      dxy     :     1.995081
      f0      :     0.016815  f :     0.035787
      f+1     :     0.009428
      f-1     :     0.009428
      f+2     :     0.000060
      f-2     :     0.000057
      f+3     :     0.000000
      f-3     :     0.000000
      g0      :     0.000109  g :     0.000209
      g+1     :     0.000050
      g-1     :     0.000050
      g+2     :     0.000000
      g-2     :     0.000001
      g+3     :     0.000000
      g-3     :     0.000000
      g+4     :     0.000000
      g-4     :     0.000000
  1 Brs       :     7.635806  s :     7.635806
      pz      :     5.489817  p :    17.066905
      px      :     5.788544
      py      :     5.788544
      dz2     :     2.082788  d :    10.135789
      dxz     :     2.024199
      dyz     :     2.024199
      dx2y2   :     2.002304
      dxy     :     2.002299
      f0      :     0.042619  f :     0.089217
      f+1     :     0.020737
      f-1     :     0.020737
      f+2     :     0.002563
      f-2     :     0.002562
      f+3     :     0.000000
      f-3     :     0.000000


                      *****************************
                      * MAYER POPULATION ANALYSIS *
                      *****************************

  NA   - Mulliken gross atomic population
  ZA   - Total nuclear charge
  QA   - Mulliken gross atomic charge
  VA   - Mayer's total valence
  BVA  - Mayer's bonded valence
  FA   - Mayer's free valence

  ATOM       NA         ZA         QA         VA         BVA        FA
  0 Cu    28.5035    29.0000     0.4965     0.9785     0.9785     0.0000
  1 Br    35.4965    35.0000    -0.4965     0.9785     0.9785     0.0000

  Mayer bond orders larger than 0.100000
B(  0-Cu,  1-Br) :   0.9785 

-------
TIMINGS
-------

Total SCF time: 0 days 0 hours 0 min 1 sec 

Total time                  ....       1.655 sec
Sum of individual times     ....       1.493 sec  ( 90.2%)

Fock matrix formation       ....       1.267 sec  ( 76.6%)
  Split-RI-J                ....       0.975 sec  ( 77.0% of F)
  XC integration            ....       0.116 sec  (  9.2% of F)
    Basis function eval.    ....       0.023 sec  ( 19.9% of XC)
    Density eval.           ....       0.015 sec  ( 13.0% of XC)
    XC-Functional eval.     ....       0.005 sec  (  4.5% of XC)
    XC-Potential eval.      ....       0.032 sec  ( 27.3% of XC)
Diagonalization             ....       0.020 sec  (  1.2%)
Density matrix formation    ....       0.003 sec  (  0.2%)
Population analysis         ....       0.004 sec  (  0.2%)
Initial guess               ....       0.010 sec  (  0.6%)
Orbital Transformation      ....       0.000 sec  (  0.0%)
Orbital Orthonormalization  ....       0.006 sec  (  0.3%)
DIIS solution               ....       0.007 sec  (  0.4%)
Grid generation             ....       0.183 sec  ( 11.1%)


-------------------------------------------------------------------------------
                          DFT DISPERSION CORRECTION                            
                                                                               
                              DFTD3 V3.1  Rev 1                                
                          USING Becke-Johnson damping                          
-------------------------------------------------------------------------------
The TPSS functional is recognized
Active option DFTDOPT                   ...         4   

molecular C6(AA) [au] = 682.029450 


            DFT-D V3
 parameters
 s6 scaling factor         :     1.0000 
 a1 scaling factor         :     0.4535 
 s8 scaling factor         :     1.9435 
 a2 scaling factor         :     4.4752 
 ad hoc parameters k1-k3   :    16.0000     1.3333    -4.0000 

 Edisp/kcal,au: -0.949049059514  -0.001512405784 
 E6   /kcal   :  -0.311927974 
 E8   /kcal   :  -0.637121085 
 % E8         :  67.132576421 

-------------------------   ----------------
Dispersion correction           -0.001512406
-------------------------   ----------------


-------------------------   --------------------
FINAL SINGLE POINT ENERGY     -4214.756324177443
-------------------------   --------------------

                                *** OPTIMIZATION RUN DONE ***

                            ***************************************
                            *     ORCA property calculations      *
                            ***************************************

                                    ---------------------
                                    Active property flags
                                    ---------------------
   (+) Dipole Moment


------------------------------------------------------------------------------
                       ORCA ELECTRIC PROPERTIES CALCULATION
------------------------------------------------------------------------------

Dipole Moment Calculation                       ... on
Quadrupole Moment Calculation                   ... off
Polarizability Calculation                      ... off
GBWName                                         ... 52_CuBr.gbw
Electron density file                           ... 52_CuBr.scfp
The origin for moment calculation is the CENTER OF MASS  = ( 0.000000,  0.000000  2.125789)

-------------
DIPOLE MOMENT
-------------
                                X             Y             Z
Electronic contribution:     -0.00000      -0.00000       0.91622
Nuclear contribution   :      0.00000       0.00000      -2.68116
                        -----------------------------------------
Total Dipole Moment    :     -0.00000      -0.00000      -1.76494
                        -----------------------------------------
Magnitude (a.u.)       :      1.76494
Magnitude (Debye)      :      4.48611



--------------------
Rotational spectrum 
--------------------
 
Rotational constants in cm-1:     0.000000     0.099117     0.099117 
Rotational constants in MHz :     0.000000  2971.467067  2971.467067 

 Dipole components along the rotational axes: 
x,y,z [a.u.] :    -1.764936    -0.000000    -0.000000 
x,y,z [Debye]:    -4.486110    -0.000000    -0.000000 

 

Timings for individual modules:

Sum of individual times         ...       79.673 sec (=   1.328 min)
GTO integral calculation        ...       30.334 sec (=   0.506 min)  38.1 %
SCF iterations                  ...       19.668 sec (=   0.328 min)  24.7 %
SCF Gradient evaluation         ...       29.474 sec (=   0.491 min)  37.0 %
Geometry relaxation             ...        0.198 sec (=   0.003 min)   0.2 %
                             ****ORCA TERMINATED NORMALLY****
TOTAL RUN TIME: 0 days 0 hours 1 minutes 20 seconds 665 msec
