
                                 *****************
                                 * O   R   C   A *
                                 *****************

           --- An Ab Initio, DFT and Semiempirical electronic structure package ---

                  #######################################################
                  #                        -***-                        #
                  #          Department of theory and spectroscopy      #
                  #               Directorship: Frank Neese             #
                  #        Max Planck Institute fuer Kohlenforschung    #
                  #                Kaiser Wilhelm Platz 1               #
                  #                 D-45470 Muelheim/Ruhr               #
                  #                      Germany                        #
                  #                                                     #
                  #                  All rights reserved                #
                  #                        -***-                        #
                  #######################################################


                         Program Version 4.2.0 -  RELEASE  -


 With contributions from (in alphabetic order):
   Daniel Aravena         : Magnetic Suceptibility
   Michael Atanasov       : Ab Initio Ligand Field Theory (pilot matlab implementation)
   Alexander A. Auer      : GIAO ZORA, VPT2
   Ute Becker             : Parallelization
   Giovanni Bistoni       : ED, misc. LED, open-shell LED, HFLED
   Martin Brehm           : Molecular dynamics
   Dmytro Bykov           : SCF Hessian
   Vijay G. Chilkuri      : MRCI spin determinant printing, contributions to CSF-ICE
   Dipayan Datta          : RHF DLPNO-CCSD density
   Achintya Kumar Dutta   : EOM-CC, STEOM-CC
   Dmitry Ganyushin       : Spin-Orbit,Spin-Spin,Magnetic field MRCI
   Miquel Garcia          : C-PCM Hessian, Gaussian charge scheme
   Yang Guo               : DLPNO-NEVPT2, CIM, IAO-localization
   Andreas Hansen         : Spin unrestricted coupled pair/coupled cluster methods
   Benjamin Helmich-Paris : CASSCF linear response (MC-RPA)
   Lee Huntington         : MR-EOM, pCC
   Robert Izsak           : Overlap fitted RIJCOSX, COSX-SCS-MP3, EOM
   Christian Kollmar      : KDIIS, OOCD, Brueckner-CCSD(T), CCSD density
   Simone Kossmann        : Meta GGA functionals, TD-DFT gradient, OOMP2, MP2 Hessian
   Martin Krupicka        : AUTO-CI
   Lucas Lang             : DCDCAS
   Dagmar Lenk            : GEPOL surface, SMD
   Dimitrios Liakos       : Extrapolation schemes; Compound Job, initial MDCI parallelization
   Dimitrios Manganas     : Further ROCIS development; embedding schemes
   Dimitrios Pantazis     : SARC Basis sets
   Taras Petrenko         : DFT Hessian,TD-DFT gradient, ASA, ECA, R-Raman, ABS, FL, XAS/XES, NRVS
   Peter Pinski           : DLPNO-MP2, DLPNO-MP2 Gradient
   Christoph Reimann      : Effective Core Potentials
   Marius Retegan         : Local ZFS, SOC
   Christoph Riplinger    : Optimizer, TS searches, QM/MM, DLPNO-CCSD(T), (RO)-DLPNO pert. Triples
   Tobias Risthaus        : Range-separated hybrids, TD-DFT gradient, RPA, STAB
   Michael Roemelt        : Original ROCIS implementation
   Masaaki Saitow         : Open-shell DLPNO-CCSD energy and density
   Barbara Sandhoefer     : DKH picture change effects
   Avijit Sen             : IP-ROCIS
   Kantharuban Sivalingam : CASSCF convergence, NEVPT2, FIC-MRCI
   Bernardo de Souza      : ESD, SOC TD-DFT
   Georgi Stoychev        : AutoAux, RI-MP2 NMR
   Willem Van den Heuvel  : Paramagnetic NMR
   Boris Wezisla          : Elementary symmetry handling
   Frank Wennmohs         : Technical directorship


 We gratefully acknowledge several colleagues who have allowed us to
 interface, adapt or use parts of their codes:
   Stefan Grimme, W. Hujo, H. Kruse,             : VdW corrections, initial TS optimization,
                  C. Bannwarth                     DFT functionals, gCP, sTDA/sTD-DF
   Ed Valeev, F. Pavosevic, A. Kumar             : LibInt (2-el integral package), F12 methods
   Garnet Chan, S. Sharma, J. Yang, R. Olivares  : DMRG
   Ulf Ekstrom                                   : XCFun DFT Library
   Mihaly Kallay                                 : mrcc  (arbitrary order and MRCC methods)
   Andreas Klamt, Michael Diedenhofen            : otool_cosmo (COSMO solvation model)
   Jiri Pittner, Ondrej Demel                    : Mk-CCSD
   Frank Weinhold                                : gennbo (NPA and NBO analysis)
   Christopher J. Cramer and Donald G. Truhlar   : smd solvation model
   Lars Goerigk                                  : TD-DFT with DH, B97 family of functionals
   V. Asgeirsson, H. Jonsson                     : NEB implementation
   FAccTs GmbH                                   : IRC, NEB, NEB-TS, Multilevel, MM, QM/MM, CI optimization
   S Lehtola, MJT Oliveira, MAL Marques          : LibXC Library


 Your calculation uses the libint2 library for the computation of 2-el integrals
 For citations please refer to: http://libint.valeyev.net

 Your ORCA version has been built with support for libXC version: 4.2.3
 For citations please refer to: https://tddft.org/programs/libxc/

 This ORCA versions uses:
   CBLAS   interface :  Fast vector & matrix operations
   LAPACKE interface :  Fast linear algebra routines
   SCALAPACK package :  Parallel linear algebra routines


Your calculation utilizes the atom-pairwise dispersion correction
with the Becke-Johnson damping scheme (D3BJ)
Cite in your paper:
S.Grimme, S.Ehrlich, L.Goerigk, J Comput Chem, (2011), 32, 1456–1465 
S.Grimme, J.Antony, S.Ehrlich and H.Krieg, J.Chem.Phys., 132, (2010), 154104 
   

----- Orbital basis set information -----
Your calculation utilizes the basis: aug-cc-pVTZ 
    H, B-Ne : Obtained from the ccRepo (grant-hill.group.shef.ac.uk/ccrepo) Feb. 2017
              R. A. Kendall, T. H. Dunning, Jr., R. J. Harrison, J. Chem. Phys. 96, 6796 (1992)
         He : Obtained from the ccRepo (grant-hill.group.shef.ac.uk/ccrepo) Feb. 2017
              D. E. Woon, T. H. Dunning, Jr., J. Chem. Phys. 100, 2975 (1994)
  Li-Be, Na : Obtained from the ccRepo (grant-hill.group.shef.ac.uk/ccrepo) Feb. 2017
              B. P. Prascher, D. E. Woon, K. A. Peterson, T. H. Dunning, Jr., A. K. Wilson, Theor. Chem. Acc. 128, 69 (2011)
         Mg : Obtained from the Peterson Research Group Website (tyr0.chem.wsu.edu/~kipeters) Feb. 2017
              B. P. Prascher, D. E. Woon, K. A. Peterson, T. H. Dunning, Jr., A. K. Wilson, Theor. Chem. Acc. 128, 69 (2011)
      Al-Ar : Obtained from the ccRepo (grant-hill.group.shef.ac.uk/ccrepo) Feb. 2017
              D. E. Woon, T. H. Dunning, Jr., J. Chem. Phys. 98, 1358 (1993)
      Sc-Zn : Obtained from the ccRepo (grant-hill.group.shef.ac.uk/ccrepo) Feb. 2017
              N. B. Balabanov, K. A. Peterson, J. Chem. Phys. 123, 064107 (2005)
              N. B. Balabanov, K. A. Peterson, J. Chem. Phys. 125, 074110 (2006)
      Ga-Kr : Obtained from the ccRepo (grant-hill.group.shef.ac.uk/ccrepo) Feb. 2017
              A. K. Wilson, D. E. Woon, K. A. Peterson, T. H. Dunning, Jr., J. Chem. Phys. 110, 7667 (1999)
     Ag, Au : Obtained from the Peterson Research Group Website (tyr0.chem.wsu.edu/~kipeters) Feb. 2017
              K. A. Peterson, C. Puzzarini, Theor. Chem. Acc. 114, 283 (2005)

----- AuxJ basis set information -----
Your calculation utilizes the auxiliary basis: def2/J
   F. Weigend, Phys. Chem. Chem. Phys. 8, 1057 (2006).

================================================================================
                                        WARNINGS
                       Please study these warnings very carefully!
================================================================================


WARNING: your system is open-shell and RHF/RKS was chosen
  ===> : WILL SWITCH to UHF/UKS


WARNING: Geometry Optimization
  ===> : Switching off AutoStart
         For restart on a previous wavefunction, please use MOREAD

INFO   : the flag for use of LIBINT has been found!

================================================================================
                                       INPUT FILE
================================================================================
NAME = 57_ZnCl.in
|  1> #
|  2> # 57_ZnCl tpss/aug-cc-pvtz
|  3> #
|  4> ! tpss d3bj aug-cc-pvtz def2/j opt xyzfile
|  5> 
|  6> *xyz 0 2
|  7> Zn 0.0 0.0 0.0
|  8> Cl 0.0 0.0 2.0
|  9> *
| 10> 
| 11> %pal
| 12> nprocs 24
| 13> end
| 14> 
| 15> 
| 16>                          ****END OF INPUT****
================================================================================

                       *****************************
                       * Geometry Optimization Run *
                       *****************************

Geometry optimization settings:
Update method            Update   .... BFGS
Choice of coordinates    CoordSys .... Z-matrix Internals
Initial Hessian          InHess   .... Almoef's Model

Convergence Tolerances:
Energy Change            TolE     ....  5.0000e-06 Eh
Max. Gradient            TolMAXG  ....  3.0000e-04 Eh/bohr
RMS Gradient             TolRMSG  ....  1.0000e-04 Eh/bohr
Max. Displacement        TolMAXD  ....  4.0000e-03 bohr
RMS Displacement         TolRMSD  ....  2.0000e-03 bohr
Strict Convergence                ....  False
------------------------------------------------------------------------------
                        ORCA OPTIMIZATION COORDINATE SETUP
------------------------------------------------------------------------------

The optimization will be done in new redundant internal coordinates
Making redundant internal coordinates   ...  (new redundants) done
Evaluating the initial hessian          ...  (Almloef) done
Evaluating the coordinates              ...  done
Calculating the B-matrix                .... done
Calculating the G-matrix                .... done
Diagonalizing the G-matrix              .... done
The first mode is                       ....    0
The number of degrees of freedom        ....    1

    -----------------------------------------------------------------
                    Redundant Internal Coordinates


    -----------------------------------------------------------------
         Definition                    Initial Value    Approx d2E/dq
    -----------------------------------------------------------------
      1. B(Cl  1,Zn  0)                  2.0000         1.508840   
    -----------------------------------------------------------------

Number of atoms                         .... 2
Number of degrees of freedom            .... 1

         *************************************************************
         *                GEOMETRY OPTIMIZATION CYCLE   1            *
         *************************************************************
---------------------------------
CARTESIAN COORDINATES (ANGSTROEM)
---------------------------------
  Zn     0.000000    0.000000    0.000000
  Cl     0.000000    0.000000    2.000000

----------------------------
CARTESIAN COORDINATES (A.U.)
----------------------------
  NO LB      ZA    FRAG     MASS         X           Y           Z
   0 Zn   30.0000    0    65.380    0.000000    0.000000    0.000000
   1 Cl   17.0000    0    35.453    0.000000    0.000000    3.779452

--------------------------------
INTERNAL COORDINATES (ANGSTROEM)
--------------------------------
 Zn     0   0   0     0.000000000000     0.00000000     0.00000000
 Cl     1   0   0     2.000000000000     0.00000000     0.00000000

---------------------------
INTERNAL COORDINATES (A.U.)
---------------------------
 Zn     0   0   0     0.000000000000     0.00000000     0.00000000
 Cl     1   0   0     3.779452267843     0.00000000     0.00000000

---------------------
BASIS SET INFORMATION
---------------------
There are 2 groups of distinct atoms

 Group   1 Type Zn  : 116s77p23d3f2g contracted to 8s7p5d3f2g pattern {19191919191911/151515151511/77711/111/11}
 Group   2 Type Cl  : 42s17p3d2f contracted to 6s5p3d2f pattern {131313111/77111/111/11}

Atom   0Zn   basis set group =>   1
Atom   1Cl   basis set group =>   2
---------------------------------
AUXILIARY/J BASIS SET INFORMATION
---------------------------------
There are 2 groups of distinct atoms

 Group   1 Type Zn  : 19s5p5d3f3g contracted to 8s5p5d2f3g pattern {121111111/11111/11111/21/111}
 Group   2 Type Cl  : 14s5p5d2f1g contracted to 8s4p3d1f1g pattern {71111111/2111/311/2/1}

Atom   0Zn   basis set group =>   1
Atom   1Cl   basis set group =>   2


           ************************************************************
           *        Program running with 24 parallel MPI-processes    *
           *              working on a common directory               *
           ************************************************************
------------------------------------------------------------------------------
                           ORCA GTO INTEGRAL CALCULATION
                           -- RI-GTO INTEGRALS CHOSEN --
------------------------------------------------------------------------------

                         BASIS SET STATISTICS AND STARTUP INFO

Gaussian basis set:
 # of primitive gaussian shells          ...  285
 # of primitive gaussian functions       ...  623
 # of contracted shells                  ...   41
 # of contracted basis functions         ...  143
 Highest angular momentum                ...    4
 Maximum contraction depth               ...   19
Auxiliary gaussian basis set:
 # of primitive gaussian shells          ...   62
 # of primitive gaussian functions       ...  184
 # of contracted shells                  ...   40
 # of contracted aux-basis functions     ...  140
 Highest angular momentum                ...    4
 Maximum contraction depth               ...   12
Ratio of auxiliary to basis functions    ...  0.98
Integral package used                  ... LIBINT
 One Electron integrals                  ... done
 Ordering auxiliary basis shells         ... done
 Integral threshhold             Thresh  ...  2.500e-11
 Primitive cut-off               TCut    ...  2.500e-12
 Pre-screening matrix                    ... done
 Shell pair data                         ... 
 Ordering of the shell pairs             ... done (   0.000 sec) 861 of 861 pairs
 Determination of significant pairs      ... done (   0.000 sec)
 Creation of shell pair data             ... done (   0.001 sec)
 Storage of shell pair data              ... done (   0.010 sec)
 Shell pair data done in (   0.012 sec)
 Computing two index integrals           ... done
 Cholesky decomposition of the V-matrix  ... done


Timings:
 Total evaluation time                   ...   2.595 sec (  0.043 min)
 One electron matrix time                ...   0.044 sec (  0.001 min) =  1.7%
 Schwartz matrix evaluation time         ...   2.511 sec (  0.042 min) = 96.7%
 Two index repulsion integral time       ...   0.001 sec (  0.000 min) =  0.0%
 Cholesky decomposition of V             ...   0.001 sec (  0.000 min) =  0.0%
 Three index repulsion integral time     ...   0.000 sec (  0.000 min) =  0.0%



           ************************************************************
           *        Program running with 24 parallel MPI-processes    *
           *              working on a common directory               *
           ************************************************************
-------------------------------------------------------------------------------
                                 ORCA SCF
-------------------------------------------------------------------------------

------------
SCF SETTINGS
------------
Hamiltonian:
 Density Functional     Method          .... DFT(GTOs)
 Exchange Functional    Exchange        .... TPSS
 Correlation Functional Correlation     .... TPSS
 LDA part of GGA corr.  LDAOpt          .... PW91-LDA
 Gradients option       PostSCFGGA      .... off
   Density functional embedding theory  .... OFF
   NL short-range parameter             ....  5.000000
 RI-approximation to the Coulomb term is turned on
   Number of auxiliary basis functions  .... 140


General Settings:
 Integral files         IntName         .... 57_ZnCl
 Hartree-Fock type      HFTyp           .... UHF
 Total Charge           Charge          ....    0
 Multiplicity           Mult            ....    2
 Number of Electrons    NEL             ....   47
 Basis Dimension        Dim             ....  143
 Nuclear Repulsion      ENuc            ....    134.9401881165 Eh

Convergence Acceleration:
 DIIS                   CNVDIIS         .... on
   Start iteration      DIISMaxIt       ....    12
   Startup error        DIISStart       ....  0.200000
   # of expansion vecs  DIISMaxEq       ....     5
   Bias factor          DIISBfac        ....   1.050
   Max. coefficient     DIISMaxC        ....  10.000
 Newton-Raphson         CNVNR           .... off
 SOSCF                  CNVSOSCF        .... off
 Level Shifting         CNVShift        .... on
   Level shift para.    LevelShift      ....    0.2500
   Turn off err/grad.   ShiftErr        ....    0.0010
 Zerner damping         CNVZerner       .... off
 Static damping         CNVDamp         .... on
   Fraction old density DampFac         ....    0.7000
   Max. Damping (<1)    DampMax         ....    0.9800
   Min. Damping (>=0)   DampMin         ....    0.0000
   Turn off err/grad.   DampErr         ....    0.1000
 Fernandez-Rico         CNVRico         .... off

SCF Procedure:
 Maximum # iterations   MaxIter         ....   125
 SCF integral mode      SCFMode         .... Direct
   Integral package                     .... LIBINT
 Reset frequency        DirectResetFreq ....    20
 Integral Threshold     Thresh          ....  2.500e-11 Eh
 Primitive CutOff       TCut            ....  2.500e-12 Eh

Convergence Tolerance:
 Convergence Check Mode ConvCheckMode   .... Total+1el-Energy
 Convergence forced     ConvForced      .... 0
 Energy Change          TolE            ....  1.000e-08 Eh
 1-El. energy change                    ....  1.000e-05 Eh
 DIIS Error             TolErr          ....  5.000e-07


Diagonalization of the overlap matrix:
Smallest eigenvalue                        ... 2.005e-04
Time for diagonalization                   ...    0.006 sec
Threshold for overlap eigenvalues          ... 1.000e-08
Number of eigenvalues below threshold      ... 0
Time for construction of square roots      ...    0.002 sec
Total time needed                          ...    0.008 sec

-------------------
DFT GRID GENERATION
-------------------

General Integration Accuracy     IntAcc      ...  4.340
Radial Grid Type                 RadialGrid  ... Gauss-Chebyshev
Angular Grid (max. acc.)         AngularGrid ... Lebedev-110
Angular grid pruning method      GridPruning ... 3 (G Style)
Weight generation scheme         WeightScheme... Becke
Basis function cutoff            BFCut       ...    1.0000e-11
Integration weight cutoff        WCut        ...    1.0000e-14
Grids for H and He will be reduced by one unit

# of grid points (after initial pruning)     ...   4756 (   0.0 sec)
# of grid points (after weights+screening)   ...   4731 (   0.0 sec)
nearest neighbour list constructed           ...    0.0 sec
Grid point re-assignment to atoms done       ...    0.0 sec
Grid point division into batches done        ...    0.0 sec
Reduced shell lists constructed in    0.0 sec

Total number of grid points                  ...     4731
Total number of batches                      ...       75
Average number of points per batch           ...       63
Average number of grid points per atom       ...     2366
Average number of shells per batch           ...    20.80 (50.73%)
Average number of basis functions per batch  ...    59.20 (41.40%)
Average number of large shells per batch     ...    16.00 (76.92%)
Average number of large basis fcns per batch ...    43.20 (72.97%)
Maximum spatial batch extension              ...  17.39, 26.34, 14.81 au
Average spatial batch extension              ...   0.85,  1.17,  0.79 au

Time for grid setup =    0.023 sec

------------------------------
INITIAL GUESS: MODEL POTENTIAL
------------------------------
Loading Hartree-Fock densities                     ... done
Calculating cut-offs                               ... done
Setting up the integral package                    ... done
Initializing the effective Hamiltonian             ... done
Starting the Coulomb interaction                   ... done (   0.0 sec)
Reading the grid                                   ... done
Mapping shells                                     ... done
Starting the XC term evaluation                    ... done (   0.0 sec)
  promolecular density results
     # of electrons  =     46.999798521
     EX              =    -96.952842692
     EC              =     -2.081350798
     EX+EC           =    -99.034193490
Transforming the Hamiltonian                       ... done (   0.0 sec)
Diagonalizing the Hamiltonian                      ... done (   0.0 sec)
Back transforming the eigenvectors                 ... done (   0.0 sec)
Now organizing SCF variables                       ... done
                      ------------------
                      INITIAL GUESS DONE (   0.2 sec)
                      ------------------
--------------
SCF ITERATIONS
--------------
ITER       Energy         Delta-E        Max-DP      RMS-DP      [F,P]     Damp
               ***  Starting incremental Fock matrix formation  ***
  0  -2239.6126369280   0.000000000000 0.03216200  0.00068150  0.2734094 0.7000
  1  -2239.6560342095  -0.043397281426 0.03082235  0.00049561  0.0451799 0.7000
                               ***Turning on DIIS***
  2  -2239.6688910459  -0.012856836442 0.10959723  0.00117138  0.0514896 0.0000
  3  -2239.6948517329  -0.025960686969 0.02741156  0.00038003  0.0326377 0.0000
  4  -2239.6995119176  -0.004660184751 0.00678352  0.00013584  0.0213342 0.0000
  5  -2239.6998968000  -0.000384882378 0.00344492  0.00005869  0.0091446 0.0000
  6  -2239.6999744795  -0.000077679488 0.00236827  0.00002908  0.0011005 0.0000
  7  -2239.6999830439  -0.000008564389 0.00150978  0.00001902  0.0006364 0.0000
  8  -2239.6999857431  -0.000002699249 0.00019280  0.00000441  0.0003655 0.0000
  9  -2239.6999858751  -0.000000131954 0.00020138  0.00000223  0.0001753 0.0000
 10  -2239.6999860313  -0.000000156198 0.00002150  0.00000039  0.0000263 0.0000
 11  -2239.6999860266   0.000000004694 0.00000780  0.00000011  0.0000042 0.0000
 12  -2239.6999859770   0.000000049598 0.00000256  0.00000004  0.0000012 0.0000
                 **** Energy Check signals convergence ****

               *****************************************************
               *                     SUCCESS                       *
               *           SCF CONVERGED AFTER  13 CYCLES          *
               *****************************************************

Setting up the final grid:

General Integration Accuracy     IntAcc      ...  4.670
Radial Grid Type                 RadialGrid  ... Gauss-Chebyshev
Angular Grid (max. acc.)         AngularGrid ... Lebedev-302
Angular grid pruning method      GridPruning ... 3 (G Style)
Weight generation scheme         WeightScheme... Becke
Basis function cutoff            BFCut       ...    1.0000e-11
Integration weight cutoff        WCut        ...    1.0000e-14
Grids for H and He will be reduced by one unit

# of grid points (after initial pruning)     ...  16378 (   0.0 sec)
# of grid points (after weights+screening)   ...  16350 (   0.0 sec)
nearest neighbour list constructed           ...    0.0 sec
Grid point re-assignment to atoms done       ...    0.0 sec
Grid point division into batches done        ...    0.1 sec
Reduced shell lists constructed in    0.1 sec

Total number of grid points                  ...    16350
Total number of batches                      ...      256
Average number of points per batch           ...       63
Average number of grid points per atom       ...     8175
Average number of shells per batch           ...    15.67 (38.21%)
Average number of basis functions per batch  ...    35.33 (24.71%)
Average number of large shells per batch     ...     8.83 (56.38%)
Average number of large basis fcns per batch ...    20.00 (56.60%)
Maximum spatial batch extension              ...  23.02, 23.02, 16.62 au
Average spatial batch extension              ...   0.79,  0.79,  0.61 au

Final grid set up in    0.1 sec
Final integration                            ... done (   0.0 sec)
Change in XC energy                          ...    -0.004726814
Integrated number of electrons               ...    47.000019880
Previous integrated no of electrons          ...    46.999796188

----------------
TOTAL SCF ENERGY
----------------

Total Energy       :        -2239.70471280 Eh          -60945.46364 eV

Components:
Nuclear Repulsion  :          134.94018812 Eh            3671.90919 eV
Electronic Energy  :        -2374.64490091 Eh          -64617.37284 eV
One Electron Energy:        -3386.31893053 Eh          -92146.42273 eV
Two Electron Energy:         1011.67402962 Eh           27529.04990 eV

Virial components:
Potential Energy   :        -4475.95703148 Eh         -121796.98287 eV
Kinetic Energy     :         2236.25231868 Eh           60851.51922 eV
Virial Ratio       :            2.00154383


DFT components:
N(Alpha)           :       24.000009950083 electrons
N(Beta)            :       23.000009930416 electrons
N(Total)           :       47.000019880499 electrons
E(X)               :      -97.336723527649 Eh       
E(C)               :       -2.084632851184 Eh       
E(XC)              :      -99.421356378832 Eh       
DFET-embed. en.    :        0.000000000000 Eh       

---------------
SCF CONVERGENCE
---------------

  Last Energy change         ...   -5.1996e-09  Tolerance :   1.0000e-08
  Last MAX-Density change    ...    1.7333e-06  Tolerance :   1.0000e-07
  Last RMS-Density change    ...    1.9650e-08  Tolerance :   5.0000e-09
  Last DIIS Error            ...    4.4060e-07  Tolerance :   5.0000e-07

             **** THE GBW FILE WAS UPDATED (57_ZnCl.gbw) ****
             **** DENSITY FILE WAS UPDATED (57_ZnCl.scfp) ****
             **** ENERGY FILE WAS UPDATED (57_ZnCl.en.tmp) ****
----------------------
UHF SPIN CONTAMINATION
----------------------

Warning: in a DFT calculation there is little theoretical justification to 
         calculate <S**2> as in Hartree-Fock theory. We will do it anyways
         but you should keep in mind that the values have only limited relevance

Expectation value of <S**2>     :     0.752788
Ideal value S*(S+1) for S=0.5   :     0.750000
Deviation                       :     0.002788

             **** THE GBW FILE WAS UPDATED (57_ZnCl.gbw) ****
             **** DENSITY FILE WAS UPDATED (57_ZnCl.scfp) ****
----------------
ORBITAL ENERGIES
----------------
                 SPIN UP ORBITALS
  NO   OCC          E(Eh)            E(eV) 
   0   1.0000    -346.336621     -9424.2986 
   1   1.0000    -101.003536     -2748.4459 
   2   1.0000     -41.790371     -1137.1738 
   3   1.0000     -36.784957     -1000.9696 
   4   1.0000     -36.784957     -1000.9696 
   5   1.0000     -36.782544     -1000.9039 
   6   1.0000      -9.232113      -251.2186 
   7   1.0000      -7.010504      -190.7655 
   8   1.0000      -7.004963      -190.6147 
   9   1.0000      -7.004963      -190.6147 
  10   1.0000      -4.702585      -127.9638 
  11   1.0000      -3.111316       -84.6632 
  12   1.0000      -3.111316       -84.6632 
  13   1.0000      -3.108709       -84.5923 
  14   1.0000      -0.752422       -20.4744 
  15   1.0000      -0.459251       -12.4969 
  16   1.0000      -0.451085       -12.2747 
  17   1.0000      -0.451085       -12.2747 
  18   1.0000      -0.446637       -12.1536 
  19   1.0000      -0.446264       -12.1435 
  20   1.0000      -0.344558        -9.3759 
  21   1.0000      -0.285715        -7.7747 
  22   1.0000      -0.285715        -7.7747 
  23   1.0000      -0.201717        -5.4890 
  24   0.0000      -0.052821        -1.4373 
  25   0.0000      -0.052821        -1.4373 
  26   0.0000      -0.002188        -0.0595 
  27   0.0000      -0.000957        -0.0260 
  28   0.0000       0.024768         0.6740 
  29   0.0000       0.024768         0.6740 
  30   0.0000       0.062816         1.7093 
  31   0.0000       0.073273         1.9939 
  32   0.0000       0.084551         2.3008 
  33   0.0000       0.084551         2.3008 
  34   0.0000       0.106373         2.8946 
  35   0.0000       0.135156         3.6778 
  36   0.0000       0.135606         3.6900 
  37   0.0000       0.165812         4.5120 
  38   0.0000       0.165812         4.5120 
  39   0.0000       0.172609         4.6969 
  40   0.0000       0.197889         5.3848 
  41   0.0000       0.197889         5.3848 
  42   0.0000       0.212689         5.7876 
  43   0.0000       0.255901         6.9634 
  44   0.0000       0.256326         6.9750 
  45   0.0000       0.306523         8.3409 
  46   0.0000       0.346151         9.4193 
  47   0.0000       0.346151         9.4193 
  48   0.0000       0.390420        10.6239 
  49   0.0000       0.534645        14.5484 
  50   0.0000       0.534645        14.5484 
  51   0.0000       0.621336        16.9074 
  52   0.0000       0.656199        17.8561 
  53   0.0000       0.658262        17.9122 
  54   0.0000       0.663547        18.0560 
  55   0.0000       0.663547        18.0560 
  56   0.0000       0.696586        18.9551 
  57   0.0000       0.735235        20.0068 
  58   0.0000       0.736059        20.0292 
  59   0.0000       0.742597        20.2071 
  60   0.0000       0.834223        22.7003 
  61   0.0000       0.846310        23.0293 
  62   0.0000       0.846310        23.0293 
  63   0.0000       0.904840        24.6219 
  64   0.0000       0.904840        24.6219 
  65   0.0000       0.969179        26.3727 
  66   0.0000       0.969179        26.3727 
  67   0.0000       0.983267        26.7561 
  68   0.0000       0.983295        26.7568 
  69   0.0000       1.070956        29.1422 
  70   0.0000       1.220687        33.2166 
  71   0.0000       1.220687        33.2166 
  72   0.0000       1.251161        34.0458 
  73   0.0000       1.577927        42.9376 
  74   0.0000       1.577927        42.9376 
  75   0.0000       1.665960        45.3331 
  76   0.0000       1.711642        46.5762 
  77   0.0000       1.712409        46.5970 
  78   0.0000       1.924205        52.3603 
  79   0.0000       1.924205        52.3603 
  80   0.0000       2.098550        57.1044 
  81   0.0000       2.181503        59.3617 
  82   0.0000       2.188640        59.5559 
  83   0.0000       2.286083        62.2075 
  84   0.0000       2.286083        62.2075 
  85   0.0000       2.289153        62.2910 
  86   0.0000       2.472270        67.2739 
  87   0.0000       2.472270        67.2739 
  88   0.0000       2.653284        72.1995 
  89   0.0000       2.680754        72.9470 
  90   0.0000       2.681842        72.9766 
  91   0.0000       2.719570        74.0033 
  92   0.0000       2.719570        74.0033 
  93   0.0000       2.727054        74.2069 
  94   0.0000       2.727054        74.2069 
  95   0.0000       2.740702        74.5783 
  96   0.0000       2.748338        74.7861 
  97   0.0000       2.839143        77.2570 
  98   0.0000       2.853345        77.6435 
  99   0.0000       2.853345        77.6435 
 100   0.0000       3.352232        91.2189 
 101   0.0000       4.136223       112.5523 
 102   0.0000       4.225261       114.9752 
 103   0.0000       4.225261       114.9752 
 104   0.0000       4.845858       131.8625 
 105   0.0000       4.845858       131.8625 
 106   0.0000       4.892177       133.1229 
 107   0.0000       4.906648       133.5167 
 108   0.0000       4.910273       133.6153 
 109   0.0000       5.103559       138.8749 
 110   0.0000       5.103559       138.8749 
 111   0.0000       5.507189       149.8582 
 112   0.0000       5.939338       161.6176 
 113   0.0000       7.272438       197.8931 
 114   0.0000       7.273445       197.9205 
 115   0.0000       7.275187       197.9679 
 116   0.0000       7.275187       197.9679 
 117   0.0000       7.278228       198.0507 
 118   0.0000       7.285981       198.2616 
 119   0.0000       7.324922       199.3213 
 120   0.0000       7.324922       199.3213 
 121   0.0000       7.462976       203.0779 
 122   0.0000      10.035544       273.0810 
 123   0.0000      10.035769       273.0872 
 124   0.0000      10.097230       274.7596 
 125   0.0000      10.097230       274.7596 
 126   0.0000      10.395000       282.8623 
 127   0.0000      15.690769       426.9675 
 128   0.0000      15.690769       426.9675 
 129   0.0000      15.724457       427.8842 
 130   0.0000      15.725266       427.9062 
 131   0.0000      15.828393       430.7125 
 132   0.0000      15.828393       430.7125 
 133   0.0000      15.909584       432.9218 
 134   0.0000      19.519697       531.1580 
 135   0.0000      19.521579       531.2092 
 136   0.0000      19.523654       531.2656 
 137   0.0000      19.523654       531.2656 
 138   0.0000      19.528338       531.3931 
 139   0.0000      19.528776       531.4050 
 140   0.0000      19.551156       532.0140 
 141   0.0000      19.551156       532.0140 
 142   0.0000      19.596457       533.2467 

                 SPIN DOWN ORBITALS
  NO   OCC          E(Eh)            E(eV) 
   0   1.0000    -346.335661     -9424.2725 
   1   1.0000    -101.002521     -2748.4183 
   2   1.0000     -41.790445     -1137.1758 
   3   1.0000     -36.785170     -1000.9754 
   4   1.0000     -36.785170     -1000.9754 
   5   1.0000     -36.781378     -1000.8722 
   6   1.0000      -9.231110      -251.1913 
   7   1.0000      -7.007487      -190.6834 
   8   1.0000      -7.004414      -190.5998 
   9   1.0000      -7.004414      -190.5998 
  10   1.0000      -4.701907      -127.9454 
  11   1.0000      -3.110104       -84.6302 
  12   1.0000      -3.110104       -84.6302 
  13   1.0000      -3.108018       -84.5735 
  14   1.0000      -0.746221       -20.3057 
  15   1.0000      -0.452671       -12.3178 
  16   1.0000      -0.446734       -12.1563 
  17   1.0000      -0.446734       -12.1563 
  18   1.0000      -0.442146       -12.0314 
  19   1.0000      -0.441768       -12.0211 
  20   1.0000      -0.332131        -9.0378 
  21   1.0000      -0.283296        -7.7089 
  22   1.0000      -0.283296        -7.7089 
  23   0.0000      -0.152894        -4.1605 
  24   0.0000      -0.028103        -0.7647 
  25   0.0000      -0.028103        -0.7647 
  26   0.0000       0.003950         0.1075 
  27   0.0000       0.018452         0.5021 
  28   0.0000       0.034455         0.9376 
  29   0.0000       0.034455         0.9376 
  30   0.0000       0.072126         1.9626 
  31   0.0000       0.078894         2.1468 
  32   0.0000       0.089026         2.4225 
  33   0.0000       0.089026         2.4225 
  34   0.0000       0.117693         3.2026 
  35   0.0000       0.144585         3.9344 
  36   0.0000       0.144928         3.9437 
  37   0.0000       0.179208         4.8765 
  38   0.0000       0.179208         4.8765 
  39   0.0000       0.186732         5.0812 
  40   0.0000       0.215254         5.8574 
  41   0.0000       0.215254         5.8574 
  42   0.0000       0.233860         6.3637 
  43   0.0000       0.261600         7.1185 
  44   0.0000       0.262043         7.1306 
  45   0.0000       0.315587         8.5876 
  46   0.0000       0.355587         9.6760 
  47   0.0000       0.355587         9.6760 
  48   0.0000       0.401551        10.9268 
  49   0.0000       0.538246        14.6464 
  50   0.0000       0.538246        14.6464 
  51   0.0000       0.628771        17.1097 
  52   0.0000       0.670735        18.2516 
  53   0.0000       0.672414        18.2973 
  54   0.0000       0.674265        18.3477 
  55   0.0000       0.674265        18.3477 
  56   0.0000       0.705073        19.1860 
  57   0.0000       0.746309        20.3081 
  58   0.0000       0.747320        20.3356 
  59   0.0000       0.751544        20.4506 
  60   0.0000       0.868388        23.6300 
  61   0.0000       0.871280        23.7087 
  62   0.0000       0.871280        23.7087 
  63   0.0000       0.919620        25.0241 
  64   0.0000       0.919620        25.0241 
  65   0.0000       0.969263        26.3750 
  66   0.0000       0.969263        26.3750 
  67   0.0000       0.992752        27.0141 
  68   0.0000       0.992880        27.0176 
  69   0.0000       1.083816        29.4921 
  70   0.0000       1.232768        33.5453 
  71   0.0000       1.232768        33.5453 
  72   0.0000       1.264976        34.4217 
  73   0.0000       1.603696        43.6388 
  74   0.0000       1.603696        43.6388 
  75   0.0000       1.674797        45.5736 
  76   0.0000       1.736994        47.2660 
  77   0.0000       1.737598        47.2825 
  78   0.0000       1.940006        52.7902 
  79   0.0000       1.940006        52.7902 
  80   0.0000       2.109079        57.3910 
  81   0.0000       2.184067        59.4315 
  82   0.0000       2.191153        59.6243 
  83   0.0000       2.289429        62.2985 
  84   0.0000       2.289429        62.2985 
  85   0.0000       2.295296        62.4582 
  86   0.0000       2.480297        67.4923 
  87   0.0000       2.480297        67.4923 
  88   0.0000       2.665084        72.5206 
  89   0.0000       2.689435        73.1833 
  90   0.0000       2.690522        73.2128 
  91   0.0000       2.721508        74.0560 
  92   0.0000       2.721508        74.0560 
  93   0.0000       2.739992        74.5590 
  94   0.0000       2.739992        74.5590 
  95   0.0000       2.746015        74.7229 
  96   0.0000       2.753781        74.9342 
  97   0.0000       2.849583        77.5411 
  98   0.0000       2.860212        77.8303 
  99   0.0000       2.860212        77.8303 
 100   0.0000       3.356001        91.3214 
 101   0.0000       4.150836       112.9500 
 102   0.0000       4.231286       115.1391 
 103   0.0000       4.231286       115.1391 
 104   0.0000       4.849310       131.9564 
 105   0.0000       4.849310       131.9564 
 106   0.0000       4.893732       133.1652 
 107   0.0000       4.910838       133.6307 
 108   0.0000       4.914523       133.7310 
 109   0.0000       5.108884       139.0198 
 110   0.0000       5.108884       139.0198 
 111   0.0000       5.513878       150.0402 
 112   0.0000       5.942079       161.6922 
 113   0.0000       7.273781       197.9297 
 114   0.0000       7.274778       197.9568 
 115   0.0000       7.277974       198.0437 
 116   0.0000       7.277974       198.0437 
 117   0.0000       7.282252       198.1601 
 118   0.0000       7.290015       198.3714 
 119   0.0000       7.329308       199.4406 
 120   0.0000       7.329308       199.4406 
 121   0.0000       7.466547       203.1751 
 122   0.0000      10.036979       273.1201 
 123   0.0000      10.037213       273.1264 
 124   0.0000      10.098574       274.7962 
 125   0.0000      10.098574       274.7962 
 126   0.0000      10.396681       282.9081 
 127   0.0000      15.692984       427.0278 
 128   0.0000      15.692984       427.0278 
 129   0.0000      15.724940       427.8974 
 130   0.0000      15.725760       427.9197 
 131   0.0000      15.829081       430.7312 
 132   0.0000      15.829081       430.7312 
 133   0.0000      15.910495       432.9466 
 134   0.0000      19.520609       531.1828 
 135   0.0000      19.522467       531.2333 
 136   0.0000      19.524197       531.2804 
 137   0.0000      19.524197       531.2804 
 138   0.0000      19.529139       531.4149 
 139   0.0000      19.529531       531.4256 
 140   0.0000      19.552183       532.0419 
 141   0.0000      19.552183       532.0419 
 142   0.0000      19.597453       533.2738 

                    ********************************
                    * MULLIKEN POPULATION ANALYSIS *
                    ********************************

--------------------------------------------
MULLIKEN ATOMIC CHARGES AND SPIN POPULATIONS
--------------------------------------------
   0 Zn:    0.434784    0.885184
   1 Cl:   -0.434784    0.114816
Sum of atomic charges         :    0.0000000
Sum of atomic spin populations:    1.0000000

-----------------------------------------------------
MULLIKEN REDUCED ORBITAL CHARGES AND SPIN POPULATIONS
-----------------------------------------------------
CHARGE
  0 Zns       :     7.152806  s :     7.152806
      pz      :     4.309536  p :    12.438003
      px      :     4.064233
      py      :     4.064233
      dz2     :     1.973340  d :     9.967679
      dxz     :     1.997843
      dyz     :     1.997843
      dx2y2   :     1.999335
      dxy     :     1.999319
      f0      :     0.002310  f :     0.006698
      f+1     :     0.002184
      f-1     :     0.002184
      f+2     :     0.000010
      f-2     :     0.000010
      f+3     :     0.000000
      f-3     :     0.000000
      g0      :     0.000012  g :     0.000030
      g+1     :     0.000009
      g-1     :     0.000009
      g+2     :     0.000000
      g-2     :     0.000000
      g+3     :     0.000000
      g-3     :     0.000000
      g+4     :     0.000000
      g-4     :     0.000000
  1 Cls       :     5.989414  s :     5.989414
      pz      :     3.558589  p :    11.407118
      px      :     3.924264
      py      :     3.924264
      dz2     :     0.013871  d :     0.035057
      dxz     :     0.010194
      dyz     :     0.010194
      dx2y2   :     0.000397
      dxy     :     0.000400
      f0      :     0.000121  f :     0.003196
      f+1     :     0.001273
      f-1     :     0.001273
      f+2     :     0.000258
      f-2     :     0.000271
      f+3     :     0.000000
      f-3     :     0.000000

SPIN
  0 Zns       :     0.641357  s :     0.641357
      pz      :     0.218329  p :     0.234551
      px      :     0.008111
      py      :     0.008111
      dz2     :     0.011152  d :     0.009358
      dxz     :    -0.001053
      dyz     :    -0.001053
      dx2y2   :     0.000157
      dxy     :     0.000155
      f0      :     0.000089  f :    -0.000082
      f+1     :    -0.000077
      f-1     :    -0.000077
      f+2     :    -0.000009
      f-2     :    -0.000009
      f+3     :     0.000000
      f-3     :     0.000000
      g0      :     0.000001  g :     0.000000
      g+1     :    -0.000000
      g-1     :    -0.000000
      g+2     :    -0.000000
      g-2     :     0.000000
      g+3     :    -0.000000
      g-3     :    -0.000000
      g+4     :     0.000000
      g-4     :    -0.000000
  1 Cls       :     0.004949  s :     0.004949
      pz      :     0.120676  p :     0.107524
      px      :    -0.006576
      py      :    -0.006576
      dz2     :     0.003493  d :     0.002840
      dxz     :    -0.000247
      dyz     :    -0.000247
      dx2y2   :    -0.000080
      dxy     :    -0.000079
      f0      :    -0.000044  f :    -0.000496
      f+1     :    -0.000159
      f-1     :    -0.000159
      f+2     :    -0.000068
      f-2     :    -0.000066
      f+3     :     0.000000
      f-3     :     0.000000


                     *******************************
                     * LOEWDIN POPULATION ANALYSIS *
                     *******************************

-------------------------------------------
LOEWDIN ATOMIC CHARGES AND SPIN POPULATIONS
-------------------------------------------
   0 Zn:    0.140153    0.809063
   1 Cl:   -0.140153    0.190937

----------------------------------------------------
LOEWDIN REDUCED ORBITAL CHARGES AND SPIN POPULATIONS
----------------------------------------------------
CHARGE
  0 Zns       :     6.819148  s :     6.819148
      pz      :     4.540865  p :    12.760791
      px      :     4.109963
      py      :     4.109963
      dz2     :     2.116289  d :    10.242773
      dxz     :     2.066116
      dyz     :     2.066116
      dx2y2   :     1.997126
      dxy     :     1.997125
      f0      :     0.017919  f :     0.036955
      f+1     :     0.009510
      f-1     :     0.009510
      f+2     :     0.000008
      f-2     :     0.000008
      f+3     :     0.000000
      f-3     :     0.000000
      g0      :     0.000099  g :     0.000180
      g+1     :     0.000040
      g-1     :     0.000040
      g+2     :     0.000000
      g-2     :     0.000000
      g+3     :     0.000000
      g-3     :     0.000000
      g+4     :     0.000000
      g-4     :     0.000000
  1 Cls       :     5.668123  s :     5.668123
      pz      :     3.667301  p :    11.216705
      px      :     3.774702
      py      :     3.774702
      dz2     :     0.122981  d :     0.166456
      dxz     :     0.020573
      dyz     :     0.020573
      dx2y2   :     0.001164
      dxy     :     0.001164
      f0      :     0.047275  f :     0.088869
      f+1     :     0.019095
      f-1     :     0.019095
      f+2     :     0.001702
      f-2     :     0.001703
      f+3     :     0.000000
      f-3     :     0.000000

SPIN
  0 Zns       :     0.471683  s :     0.471683
      pz      :     0.308419  p :     0.324707
      px      :     0.008144
      py      :     0.008144
      dz2     :     0.016065  d :     0.010258
      dxz     :    -0.002913
      dyz     :    -0.002913
      dx2y2   :     0.000010
      dxy     :     0.000009
      f0      :     0.002380  f :     0.002400
      f+1     :     0.000009
      f-1     :     0.000009
      f+2     :     0.000001
      f-2     :     0.000001
      f+3     :     0.000000
      f-3     :     0.000000
      g0      :     0.000015  g :     0.000015
      g+1     :    -0.000000
      g-1     :    -0.000000
      g+2     :    -0.000000
      g-2     :    -0.000000
      g+3     :    -0.000000
      g-3     :    -0.000000
      g+4     :     0.000000
      g-4     :    -0.000000
  1 Cls       :     0.041713  s :     0.041713
      pz      :     0.132145  p :     0.122903
      px      :    -0.004621
      py      :    -0.004621
      dz2     :     0.026774  d :     0.026051
      dxz     :    -0.000349
      dyz     :    -0.000349
      dx2y2   :    -0.000013
      dxy     :    -0.000012
      f0      :     0.000806  f :     0.000270
      f+1     :    -0.000270
      f-1     :    -0.000270
      f+2     :     0.000002
      f-2     :     0.000002
      f+3     :     0.000000
      f-3     :     0.000000


                      *****************************
                      * MAYER POPULATION ANALYSIS *
                      *****************************

  NA   - Mulliken gross atomic population
  ZA   - Total nuclear charge
  QA   - Mulliken gross atomic charge
  VA   - Mayer's total valence
  BVA  - Mayer's bonded valence
  FA   - Mayer's free valence

  ATOM       NA         ZA         QA         VA         BVA        FA
  0 Zn    29.5652    30.0000     0.4348     1.7489     0.9467     0.8021
  1 Cl    17.4348    17.0000    -0.4348     0.9599     0.9467     0.0132

  Mayer bond orders larger than 0.100000
B(  0-Zn,  1-Cl) :   0.9467 

-------
TIMINGS
-------

Total SCF time: 0 days 0 hours 0 min 2 sec 

Total time                  ....       2.497 sec
Sum of individual times     ....       2.358 sec  ( 94.5%)

Fock matrix formation       ....       1.985 sec  ( 79.5%)
  Split-RI-J                ....       1.660 sec  ( 83.7% of F)
  XC integration            ....       0.258 sec  ( 13.0% of F)
    Basis function eval.    ....       0.029 sec  ( 11.2% of XC)
    Density eval.           ....       0.035 sec  ( 13.5% of XC)
    XC-Functional eval.     ....       0.008 sec  (  3.1% of XC)
    XC-Potential eval.      ....       0.097 sec  ( 37.8% of XC)
Diagonalization             ....       0.068 sec  (  2.7%)
Density matrix formation    ....       0.009 sec  (  0.4%)
Population analysis         ....       0.007 sec  (  0.3%)
Initial guess               ....       0.129 sec  (  5.2%)
Orbital Transformation      ....       0.000 sec  (  0.0%)
Orbital Orthonormalization  ....       0.000 sec  (  0.0%)
DIIS solution               ....       0.024 sec  (  1.0%)
Grid generation             ....       0.136 sec  (  5.5%)


-------------------------------------------------------------------------------
                          DFT DISPERSION CORRECTION                            
                                                                               
                              DFTD3 V3.1  Rev 1                                
                          USING Becke-Johnson damping                          
-------------------------------------------------------------------------------
The TPSS functional is recognized
Active option DFTDOPT                   ...         4   

molecular C6(AA) [au] = 574.592955 


            DFT-D V3
 parameters
 s6 scaling factor         :     1.0000 
 a1 scaling factor         :     0.4535 
 s8 scaling factor         :     1.9435 
 a2 scaling factor         :     4.4752 
 ad hoc parameters k1-k3   :    16.0000     1.3333    -4.0000 

 Edisp/kcal,au: -0.953187320607  -0.001519000522 
 E6   /kcal   :  -0.341337965 
 E8   /kcal   :  -0.611849356 
 % E8         :  64.189833660 

-------------------------   ----------------
Dispersion correction           -0.001519001
-------------------------   ----------------


-------------------------   --------------------
FINAL SINGLE POINT ENERGY     -2239.706231797104
-------------------------   --------------------



           ************************************************************
           *        Program running with 24 parallel MPI-processes    *
           *              working on a common directory               *
           ************************************************************
------------------------------------------------------------------------------
                         ORCA SCF GRADIENT CALCULATION
------------------------------------------------------------------------------

Gradient of the Kohn-Sham DFT energy:
Kohn-Sham wavefunction type      ... UKS
Hartree-Fock exchange scaling    ...    0.000
Number of operators              ...    2
Number of atoms                  ...    2
Basis set dimensions             ...  143
Integral neglect threshold       ... 2.5e-11
Integral primitive cutoff        ... 2.5e-12

Nuclear repulsion gradient       ... done
One Electron Gradient            ... done
Pre-screening matrix             ... done
RI-J gradient                    ... done
Exchange-correlation gradient    ... done
Dispersion correction            ... done

------------------
CARTESIAN GRADIENT
------------------

   1   Zn  :    0.000000004    0.000000002    0.052163630
   2   Cl  :   -0.000000001   -0.000000005   -0.052609452

Difference to translation invariance:
           :    0.0000000028   -0.0000000028   -0.0004458219

Norm of the cartesian gradient     ...    0.0740864281
RMS gradient                       ...    0.0302456576
MAX gradient                       ...    0.0526094524

-------
TIMINGS
-------

Total SCF gradient time            ...        4.503 sec

One electron gradient       ....       0.055 sec  (  1.2%)
Prescreening matrices       ....       3.611 sec  ( 80.2%)
RI-J Coulomb gradient       ....       0.252 sec  (  5.6%)
XC gradient                 ....       0.046 sec  (  1.0%)
------------------------------------------------------------------------------
                         ORCA GEOMETRY RELAXATION STEP
------------------------------------------------------------------------------

Reading the OPT-File                    .... done
Getting information on internals        .... done
Copying old internal coords+grads       .... done
Making the new internal coordinates     .... (new redundants).... done
Validating the new internal coordinates .... (new redundants).... done
Calculating the B-matrix                .... done
Calculating the G,G- and P matrices     .... done
Transforming gradient to internals      .... done
Projecting the internal gradient        .... done
Number of atoms                         ....   2
Number of internal coordinates          ....   1
Current Energy                          .... -2239.706231797 Eh
Current gradient norm                   ....     0.074086428 Eh/bohr
Maximum allowed component of the step   ....  0.300
Current trust radius                    ....  0.300
Evaluating the initial hessian          ....  (Almloef) done
Projecting the Hessian                  .... done
Forming the augmented Hessian           .... done
Diagonalizing the augmented Hessian     .... done
Last element of RFO vector              ....  0.999399260
Lowest eigenvalues of augmented Hessian:
 -0.001816660
Length of the computed step             ....  0.034677989
The final length of the internal step   ....  0.034677989
Converting the step to cartesian space:
 Initial RMS(Int)=    0.0346779893
Transforming coordinates:
 Iter   0:  RMS(Cart)=    0.0100106732 RMS(Int)=    0.0346779893
 Iter   1:  RMS(Cart)=    0.0000000000 RMS(Int)=    0.0000000000
done
Storing new coordinates                 .... done

                                .--------------------.
          ----------------------|Geometry convergence|-------------------------
          Item                value                   Tolerance       Converged
          ---------------------------------------------------------------------
          RMS gradient        0.0523865414            0.0001000000      NO
          MAX gradient        0.0523865414            0.0003000000      NO
          RMS step            0.0346779893            0.0020000000      NO
          MAX step            0.0346779893            0.0040000000      NO
          ........................................................
          Max(Bonds)      0.0184      Max(Angles)    0.00
          Max(Dihed)        0.00      Max(Improp)    0.00
          ---------------------------------------------------------------------

The optimization has not yet converged - more geometry cycles are needed


    ---------------------------------------------------------------------------
                         Redundant Internal Coordinates
                            (Angstroem and degrees)

        Definition                    Value    dE/dq     Step     New-Value
    ----------------------------------------------------------------------------
     1. B(Cl  1,Zn  0)                2.0000 -0.052387  0.0184    2.0184   
    ----------------------------------------------------------------------------

         *************************************************************
         *                GEOMETRY OPTIMIZATION CYCLE   2            *
         *************************************************************
---------------------------------
CARTESIAN COORDINATES (ANGSTROEM)
---------------------------------
  Zn     0.000000    0.000000   -0.009175
  Cl     0.000000    0.000000    2.009175

----------------------------
CARTESIAN COORDINATES (A.U.)
----------------------------
  NO LB      ZA    FRAG     MASS         X           Y           Z
   0 Zn   30.0000    0    65.380    0.000000    0.000000   -0.017339
   1 Cl   17.0000    0    35.453    0.000000    0.000000    3.796791

--------------------------------
INTERNAL COORDINATES (ANGSTROEM)
--------------------------------
 Zn     0   0   0     0.000000000000     0.00000000     0.00000000
 Cl     1   0   0     2.018350801562     0.00000000     0.00000000

---------------------------
INTERNAL COORDINATES (A.U.)
---------------------------
 Zn     0   0   0     0.000000000000     0.00000000     0.00000000
 Cl     1   0   0     3.814130257132     0.00000000     0.00000000



           ************************************************************
           *        Program running with 24 parallel MPI-processes    *
           *              working on a common directory               *
           ************************************************************
 One Electron integrals                  ... done
 Pre-screening matrix                    ... done


           ************************************************************
           *        Program running with 24 parallel MPI-processes    *
           *              working on a common directory               *
           ************************************************************

Diagonalization of the overlap matrix:
Smallest eigenvalue                        ... 2.070e-04
Time for diagonalization                   ...    0.004 sec
Threshold for overlap eigenvalues          ... 1.000e-08
Number of eigenvalues below threshold      ... 0
Time for construction of square roots      ...    0.002 sec
Total time needed                          ...    0.007 sec

-------------------
DFT GRID GENERATION
-------------------

General Integration Accuracy     IntAcc      ...  4.340
Radial Grid Type                 RadialGrid  ... Gauss-Chebyshev
Angular Grid (max. acc.)         AngularGrid ... Lebedev-110
Angular grid pruning method      GridPruning ... 3 (G Style)
Weight generation scheme         WeightScheme... Becke
Basis function cutoff            BFCut       ...    1.0000e-11
Integration weight cutoff        WCut        ...    1.0000e-14
Grids for H and He will be reduced by one unit

# of grid points (after initial pruning)     ...   4756 (   0.0 sec)
# of grid points (after weights+screening)   ...   4731 (   0.0 sec)
nearest neighbour list constructed           ...    0.0 sec
Grid point re-assignment to atoms done       ...    0.0 sec
Grid point division into batches done        ...    0.0 sec
Reduced shell lists constructed in    0.0 sec

Total number of grid points                  ...     4731
Total number of batches                      ...       75
Average number of points per batch           ...       63
Average number of grid points per atom       ...     2366
Average number of shells per batch           ...    20.80 (50.73%)
Average number of basis functions per batch  ...    59.20 (41.40%)
Average number of large shells per batch     ...    16.00 (76.92%)
Average number of large basis fcns per batch ...    43.20 (72.97%)
Maximum spatial batch extension              ...  17.39, 26.34, 14.81 au
Average spatial batch extension              ...   0.85,  1.17,  0.79 au

Time for grid setup =    0.021 sec

--------------
SCF ITERATIONS
--------------
ITER       Energy         Delta-E        Max-DP      RMS-DP      [F,P]     Damp
               ***  Starting incremental Fock matrix formation  ***
  0  -2239.7016179756   0.000000000000 0.00076489  0.00001997  0.0051872 0.7000
  1  -2239.7016300002  -0.000012024615 0.00082621  0.00001762  0.0036338 0.7000
                               ***Turning on DIIS***
  2  -2239.7016378027  -0.000007802448 0.00274448  0.00004444  0.0025429 0.0000
  3  -2239.7016551339  -0.000017331271 0.00111699  0.00001187  0.0004505 0.0000
  4  -2239.7016552973  -0.000000163325 0.00023600  0.00000449  0.0003597 0.0000
  5  -2239.7016558922  -0.000000594954 0.00008373  0.00000122  0.0000785 0.0000
  6  -2239.7016557741   0.000000118074 0.00003822  0.00000050  0.0000461 0.0000
  7  -2239.7016557953  -0.000000021201 0.00000611  0.00000012  0.0000327 0.0000
  8  -2239.7016557212   0.000000074105 0.00001189  0.00000015  0.0000028 0.0000
                            ***DIIS convergence achieved***

               *****************************************************
               *                     SUCCESS                       *
               *           SCF CONVERGED AFTER   9 CYCLES          *
               *****************************************************

Setting up the final grid:

General Integration Accuracy     IntAcc      ...  4.670
Radial Grid Type                 RadialGrid  ... Gauss-Chebyshev
Angular Grid (max. acc.)         AngularGrid ... Lebedev-302
Angular grid pruning method      GridPruning ... 3 (G Style)
Weight generation scheme         WeightScheme... Becke
Basis function cutoff            BFCut       ...    1.0000e-11
Integration weight cutoff        WCut        ...    1.0000e-14
Grids for H and He will be reduced by one unit

# of grid points (after initial pruning)     ...  16378 (   0.0 sec)
# of grid points (after weights+screening)   ...  16350 (   0.0 sec)
nearest neighbour list constructed           ...    0.0 sec
Grid point re-assignment to atoms done       ...    0.0 sec
Grid point division into batches done        ...    0.1 sec
Reduced shell lists constructed in    0.1 sec

Total number of grid points                  ...    16350
Total number of batches                      ...      256
Average number of points per batch           ...       63
Average number of grid points per atom       ...     8175
Average number of shells per batch           ...    15.67 (38.21%)
Average number of basis functions per batch  ...    35.33 (24.71%)
Average number of large shells per batch     ...     8.83 (56.38%)
Average number of large basis fcns per batch ...    20.00 (56.60%)
Maximum spatial batch extension              ...  23.02, 23.02, 16.62 au
Average spatial batch extension              ...   0.79,  0.79,  0.61 au

Final grid set up in    0.1 sec
Final integration                            ... done (   0.1 sec)
Change in XC energy                          ...    -0.004715896
Integrated number of electrons               ...    47.000020035
Previous integrated no of electrons          ...    46.999802065
Total Energy       :        -2239.70637163 Eh          -60945.50878 eV
  Last Energy change         ...   -8.6143e-09  Tolerance :   1.0000e-08
  Last MAX-Density change    ...    1.1354e-06  Tolerance :   1.0000e-07
             **** THE GBW FILE WAS UPDATED (57_ZnCl.gbw) ****
             **** DENSITY FILE WAS UPDATED (57_ZnCl.scfp) ****
             **** ENERGY FILE WAS UPDATED (57_ZnCl.en.tmp) ****
----------------------
UHF SPIN CONTAMINATION
----------------------

Warning: in a DFT calculation there is little theoretical justification to 
         calculate <S**2> as in Hartree-Fock theory. We will do it anyways
         but you should keep in mind that the values have only limited relevance

Expectation value of <S**2>     :     0.752797
Ideal value S*(S+1) for S=0.5   :     0.750000
Deviation                       :     0.002797

             **** THE GBW FILE WAS UPDATED (57_ZnCl.gbw) ****
             **** DENSITY FILE WAS UPDATED (57_ZnCl.scfp) ****
Total SCF time: 0 days 0 hours 0 min 2 sec 


-------------------------------------------------------------------------------
                          DFT DISPERSION CORRECTION                            
                                                                               
                              DFTD3 V3.1  Rev 1                                
                          USING Becke-Johnson damping                          
-------------------------------------------------------------------------------
-------------------------   ----------------
Dispersion correction           -0.001519331
-------------------------   ----------------


-------------------------   --------------------
FINAL SINGLE POINT ENERGY     -2239.707890956337
-------------------------   --------------------



           ************************************************************
           *        Program running with 24 parallel MPI-processes    *
           *              working on a common directory               *
           ************************************************************
------------------------------------------------------------------------------
                         ORCA SCF GRADIENT CALCULATION
------------------------------------------------------------------------------

Gradient of the Kohn-Sham DFT energy:
Kohn-Sham wavefunction type      ... UKS
Hartree-Fock exchange scaling    ...    0.000
Number of operators              ...    2
Number of atoms                  ...    2
Basis set dimensions             ...  143
Integral neglect threshold       ... 2.5e-11
Integral primitive cutoff        ... 2.5e-12

Nuclear repulsion gradient       ... done
One Electron Gradient            ... done
Pre-screening matrix             ... done
RI-J gradient                    ... done
Exchange-correlation gradient    ... done
Dispersion correction            ... done

------------------
CARTESIAN GRADIENT
------------------

   1   Zn  :   -0.000000006   -0.000000002    0.044307571
   2   Cl  :    0.000000004   -0.000000002   -0.044695842

Difference to translation invariance:
           :   -0.0000000022   -0.0000000035   -0.0003882717

Norm of the cartesian gradient     ...    0.0629355155
RMS gradient                       ...    0.0256933166
MAX gradient                       ...    0.0446958422

-------
TIMINGS
-------

Total SCF gradient time            ...        4.536 sec

One electron gradient       ....       0.064 sec  (  1.4%)
Prescreening matrices       ....       3.627 sec  ( 80.0%)
RI-J Coulomb gradient       ....       0.253 sec  (  5.6%)
XC gradient                 ....       0.047 sec  (  1.0%)
------------------------------------------------------------------------------
                         ORCA GEOMETRY RELAXATION STEP
------------------------------------------------------------------------------

Reading the OPT-File                    .... done
Getting information on internals        .... done
Copying old internal coords+grads       .... done
Making the new internal coordinates     .... (new redundants).... done
Validating the new internal coordinates .... (new redundants).... done
Calculating the B-matrix                .... done
Calculating the G,G- and P matrices     .... done
Transforming gradient to internals      .... done
Projecting the internal gradient        .... done
Number of atoms                         ....   2
Number of internal coordinates          ....   1
Current Energy                          .... -2239.707890956 Eh
Current gradient norm                   ....     0.062935516 Eh/bohr
Maximum allowed component of the step   ....  0.300
Current trust radius                    ....  0.300
Updating the Hessian (BFGS)             .... done
Forming the augmented Hessian           .... done
Diagonalizing the augmented Hessian     .... done
Last element of RFO vector              ....  0.982649257
Lowest eigenvalues of augmented Hessian:
 -0.008399629
Length of the computed step             ....  0.188748478
The final length of the internal step   ....  0.188748478
Converting the step to cartesian space:
 Initial RMS(Int)=    0.1887484779
Transforming coordinates:
 Iter   0:  RMS(Cart)=    0.0544869923 RMS(Int)=    0.1887484779
 Iter   1:  RMS(Cart)=    0.0000000000 RMS(Int)=    0.0000000000
done
Storing new coordinates                 .... done

                                .--------------------.
          ----------------------|Geometry convergence|-------------------------
          Item                value                   Tolerance       Converged
          ---------------------------------------------------------------------
          Energy change      -0.0016591592            0.0000050000      NO
          RMS gradient        0.0445017064            0.0001000000      NO
          MAX gradient        0.0445017064            0.0003000000      NO
          RMS step            0.1887484779            0.0020000000      NO
          MAX step            0.1887484779            0.0040000000      NO
          ........................................................
          Max(Bonds)      0.0999      Max(Angles)    0.00
          Max(Dihed)        0.00      Max(Improp)    0.00
          ---------------------------------------------------------------------

The optimization has not yet converged - more geometry cycles are needed


    ---------------------------------------------------------------------------
                         Redundant Internal Coordinates
                            (Angstroem and degrees)

        Definition                    Value    dE/dq     Step     New-Value
    ----------------------------------------------------------------------------
     1. B(Cl  1,Zn  0)                2.0184 -0.044502  0.0999    2.1182   
    ----------------------------------------------------------------------------

         *************************************************************
         *                GEOMETRY OPTIMIZATION CYCLE   3            *
         *************************************************************
---------------------------------
CARTESIAN COORDINATES (ANGSTROEM)
---------------------------------
  Zn     0.000000    0.000000   -0.059116
  Cl     0.000000    0.000000    2.059116

----------------------------
CARTESIAN COORDINATES (A.U.)
----------------------------
  NO LB      ZA    FRAG     MASS         X           Y           Z
   0 Zn   30.0000    0    65.380    0.000000    0.000000   -0.111713
   1 Cl   17.0000    0    35.453    0.000000    0.000000    3.891166

--------------------------------
INTERNAL COORDINATES (ANGSTROEM)
--------------------------------
 Zn     0   0   0     0.000000000000     0.00000000     0.00000000
 Cl     1   0   0     2.118232194164     0.00000000     0.00000000

---------------------------
INTERNAL COORDINATES (A.U.)
---------------------------
 Zn     0   0   0     0.000000000000     0.00000000     0.00000000
 Cl     1   0   0     4.002878735025     0.00000000     0.00000000



           ************************************************************
           *        Program running with 24 parallel MPI-processes    *
           *              working on a common directory               *
           ************************************************************
 One Electron integrals                  ... done
 Pre-screening matrix                    ... done


           ************************************************************
           *        Program running with 24 parallel MPI-processes    *
           *              working on a common directory               *
           ************************************************************

Diagonalization of the overlap matrix:
Smallest eigenvalue                        ... 2.432e-04
Time for diagonalization                   ...    0.006 sec
Threshold for overlap eigenvalues          ... 1.000e-08
Number of eigenvalues below threshold      ... 0
Time for construction of square roots      ...    0.003 sec
Total time needed                          ...    0.009 sec

-------------------
DFT GRID GENERATION
-------------------

General Integration Accuracy     IntAcc      ...  4.340
Radial Grid Type                 RadialGrid  ... Gauss-Chebyshev
Angular Grid (max. acc.)         AngularGrid ... Lebedev-110
Angular grid pruning method      GridPruning ... 3 (G Style)
Weight generation scheme         WeightScheme... Becke
Basis function cutoff            BFCut       ...    1.0000e-11
Integration weight cutoff        WCut        ...    1.0000e-14
Grids for H and He will be reduced by one unit

# of grid points (after initial pruning)     ...   4756 (   0.0 sec)
# of grid points (after weights+screening)   ...   4732 (   0.0 sec)
nearest neighbour list constructed           ...    0.0 sec
Grid point re-assignment to atoms done       ...    0.0 sec
Grid point division into batches done        ...    0.0 sec
Reduced shell lists constructed in    0.0 sec

Total number of grid points                  ...     4732
Total number of batches                      ...       75
Average number of points per batch           ...       63
Average number of grid points per atom       ...     2366
Average number of shells per batch           ...    20.80 (50.73%)
Average number of basis functions per batch  ...    59.20 (41.40%)
Average number of large shells per batch     ...    16.00 (76.92%)
Average number of large basis fcns per batch ...    43.20 (72.97%)
Maximum spatial batch extension              ...  17.39, 26.34, 14.99 au
Average spatial batch extension              ...   0.85,  1.17,  0.79 au

Time for grid setup =    0.019 sec

--------------
SCF ITERATIONS
--------------
ITER       Energy         Delta-E        Max-DP      RMS-DP      [F,P]     Damp
               ***  Starting incremental Fock matrix formation  ***
  0  -2239.7056453277   0.000000000000 0.00351105  0.00009877  0.0272529 0.7000
  1  -2239.7059509585  -0.000305630744 0.00395297  0.00008773  0.0190832 0.7000
                               ***Turning on DIIS***
  2  -2239.7061543910  -0.000203432482 0.01347437  0.00022158  0.0133483 0.0000
  3  -2239.7066061067  -0.000451715721 0.00348342  0.00004022  0.0021598 0.0000
  4  -2239.7066219103  -0.000015803590 0.00180784  0.00002426  0.0009472 0.0000
  5  -2239.7066261306  -0.000004220361 0.00033177  0.00000441  0.0004507 0.0000
  6  -2239.7066260218   0.000000108873 0.00020190  0.00000276  0.0005576 0.0000
  7  -2239.7066263217  -0.000000299956 0.00005762  0.00000078  0.0000272 0.0000
  8  -2239.7066263071   0.000000014612 0.00002263  0.00000031  0.0000289 0.0000
  9  -2239.7066263561  -0.000000048996 0.00000832  0.00000012  0.0000034 0.0000
 10  -2239.7066263114   0.000000044764 0.00000165  0.00000002  0.0000017 0.0000
                            ***DIIS convergence achieved***

               *****************************************************
               *                     SUCCESS                       *
               *           SCF CONVERGED AFTER  11 CYCLES          *
               *****************************************************

Setting up the final grid:

General Integration Accuracy     IntAcc      ...  4.670
Radial Grid Type                 RadialGrid  ... Gauss-Chebyshev
Angular Grid (max. acc.)         AngularGrid ... Lebedev-302
Angular grid pruning method      GridPruning ... 3 (G Style)
Weight generation scheme         WeightScheme... Becke
Basis function cutoff            BFCut       ...    1.0000e-11
Integration weight cutoff        WCut        ...    1.0000e-14
Grids for H and He will be reduced by one unit

# of grid points (after initial pruning)     ...  16378 (   0.0 sec)
# of grid points (after weights+screening)   ...  16351 (   0.0 sec)
nearest neighbour list constructed           ...    0.0 sec
Grid point re-assignment to atoms done       ...    0.0 sec
Grid point division into batches done        ...    0.1 sec
Reduced shell lists constructed in    0.1 sec

Total number of grid points                  ...    16351
Total number of batches                      ...      257
Average number of points per batch           ...       63
Average number of grid points per atom       ...     8176
Average number of shells per batch           ...    15.67 (38.21%)
Average number of basis functions per batch  ...    35.33 (24.71%)
Average number of large shells per batch     ...     8.83 (56.38%)
Average number of large basis fcns per batch ...    20.00 (56.60%)
Maximum spatial batch extension              ...  23.02, 23.02, 16.62 au
Average spatial batch extension              ...   0.79,  0.78,  0.61 au

Final grid set up in    0.1 sec
Final integration                            ... done (   0.1 sec)
Change in XC energy                          ...    -0.004683506
Integrated number of electrons               ...    47.000004590
Previous integrated no of electrons          ...    46.999848194
Total Energy       :        -2239.71130981 Eh          -60945.64316 eV
  Last Energy change         ...    8.0668e-09  Tolerance :   1.0000e-08
  Last MAX-Density change    ...    1.1021e-06  Tolerance :   1.0000e-07
             **** THE GBW FILE WAS UPDATED (57_ZnCl.gbw) ****
             **** DENSITY FILE WAS UPDATED (57_ZnCl.scfp) ****
             **** ENERGY FILE WAS UPDATED (57_ZnCl.en.tmp) ****
----------------------
UHF SPIN CONTAMINATION
----------------------

Warning: in a DFT calculation there is little theoretical justification to 
         calculate <S**2> as in Hartree-Fock theory. We will do it anyways
         but you should keep in mind that the values have only limited relevance

Expectation value of <S**2>     :     0.752854
Ideal value S*(S+1) for S=0.5   :     0.750000
Deviation                       :     0.002854

             **** THE GBW FILE WAS UPDATED (57_ZnCl.gbw) ****
             **** DENSITY FILE WAS UPDATED (57_ZnCl.scfp) ****
Total SCF time: 0 days 0 hours 0 min 2 sec 


-------------------------------------------------------------------------------
                          DFT DISPERSION CORRECTION                            
                                                                               
                              DFTD3 V3.1  Rev 1                                
                          USING Becke-Johnson damping                          
-------------------------------------------------------------------------------
-------------------------   ----------------
Dispersion correction           -0.001524620
-------------------------   ----------------


-------------------------   --------------------
FINAL SINGLE POINT ENERGY     -2239.712834429476
-------------------------   --------------------



           ************************************************************
           *        Program running with 24 parallel MPI-processes    *
           *              working on a common directory               *
           ************************************************************
------------------------------------------------------------------------------
                         ORCA SCF GRADIENT CALCULATION
------------------------------------------------------------------------------

Gradient of the Kohn-Sham DFT energy:
Kohn-Sham wavefunction type      ... UKS
Hartree-Fock exchange scaling    ...    0.000
Number of operators              ...    2
Number of atoms                  ...    2
Basis set dimensions             ...  143
Integral neglect threshold       ... 2.5e-11
Integral primitive cutoff        ... 2.5e-12

Nuclear repulsion gradient       ... done
One Electron Gradient            ... done
Pre-screening matrix             ... done
RI-J gradient                    ... done
Exchange-correlation gradient    ... done
Dispersion correction            ... done

------------------
CARTESIAN GRADIENT
------------------

   1   Zn  :   -0.000000002    0.000000002    0.011181984
   2   Cl  :   -0.000000003   -0.000000003   -0.011779093

Difference to translation invariance:
           :   -0.0000000047   -0.0000000010   -0.0005971090

Norm of the cartesian gradient     ...    0.0162414222
RMS gradient                       ...    0.0066305328
MAX gradient                       ...    0.0117790929

-------
TIMINGS
-------

Total SCF gradient time            ...        4.501 sec

One electron gradient       ....       0.055 sec  (  1.2%)
Prescreening matrices       ....       3.617 sec  ( 80.4%)
RI-J Coulomb gradient       ....       0.255 sec  (  5.7%)
XC gradient                 ....       0.044 sec  (  1.0%)
------------------------------------------------------------------------------
                         ORCA GEOMETRY RELAXATION STEP
------------------------------------------------------------------------------

Reading the OPT-File                    .... done
Getting information on internals        .... done
Copying old internal coords+grads       .... done
Making the new internal coordinates     .... (new redundants).... done
Validating the new internal coordinates .... (new redundants).... done
Calculating the B-matrix                .... done
Calculating the G,G- and P matrices     .... done
Transforming gradient to internals      .... done
Projecting the internal gradient        .... done
Number of atoms                         ....   2
Number of internal coordinates          ....   1
Current Energy                          .... -2239.712834429 Eh
[...]
 113   0.0000       7.268047       197.7736 
 114   0.0000       7.268662       197.7903 
 115   0.0000       7.271099       197.8567 
 116   0.0000       7.271099       197.8567 
 117   0.0000       7.273578       197.9241 
 118   0.0000       7.279757       198.0923 
 119   0.0000       7.298873       198.6124 
 120   0.0000       7.298873       198.6124 
 121   0.0000       7.361144       200.3069 
 122   0.0000      10.032013       272.9849 
 123   0.0000      10.032257       272.9916 
 124   0.0000      10.097330       274.7623 
 125   0.0000      10.097330       274.7623 
 126   0.0000      10.263718       279.2900 
 127   0.0000      15.688497       426.9057 
 128   0.0000      15.688497       426.9057 
 129   0.0000      15.712243       427.5519 
 130   0.0000      15.712845       427.5683 
 131   0.0000      15.795726       429.8236 
 132   0.0000      15.795726       429.8236 
 133   0.0000      15.895847       432.5480 
 134   0.0000      19.517615       531.1013 
 135   0.0000      19.519427       531.1506 
 136   0.0000      19.521540       531.2081 
 137   0.0000      19.521540       531.2081 
 138   0.0000      19.524862       531.2985 
 139   0.0000      19.525431       531.3140 
 140   0.0000      19.537921       531.6539 
 141   0.0000      19.537921       531.6539 
 142   0.0000      19.557917       532.1980 

                 SPIN DOWN ORBITALS
  NO   OCC          E(Eh)            E(eV) 
   0   1.0000    -346.339360     -9424.3731 
   1   1.0000    -100.994664     -2748.2045 
   2   1.0000     -41.792185     -1137.2232 
   3   1.0000     -36.786935     -1001.0234 
   4   1.0000     -36.786935     -1001.0234 
   5   1.0000     -36.783435     -1000.9281 
   6   1.0000      -9.221449      -250.9284 
   7   1.0000      -6.998299      -190.4334 
   8   1.0000      -6.994725      -190.3362 
   9   1.0000      -6.994725      -190.3362 
  10   1.0000      -4.703175      -127.9799 
  11   1.0000      -3.111825       -84.6771 
  12   1.0000      -3.111825       -84.6771 
  13   1.0000      -3.108324       -84.5818 
  14   1.0000      -0.724696       -19.7200 
  15   1.0000      -0.446630       -12.1534 
  16   1.0000      -0.444138       -12.0856 
  17   1.0000      -0.443927       -12.0799 
  18   1.0000      -0.443927       -12.0799 
  19   1.0000      -0.443758       -12.0753 
  20   1.0000      -0.323290        -8.7972 
  21   1.0000      -0.271535        -7.3888 
  22   1.0000      -0.271535        -7.3888 
  23   0.0000      -0.164682        -4.4812 
  24   0.0000      -0.033850        -0.9211 
  25   0.0000      -0.033850        -0.9211 
  26   0.0000       0.003393         0.0923 
  27   0.0000       0.013510         0.3676 
  28   0.0000       0.034083         0.9274 
  29   0.0000       0.034083         0.9274 
  30   0.0000       0.065448         1.7809 
  31   0.0000       0.079181         2.1546 
  32   0.0000       0.090148         2.4531 
  33   0.0000       0.090148         2.4531 
  34   0.0000       0.115035         3.1303 
  35   0.0000       0.146546         3.9877 
  36   0.0000       0.147132         4.0037 
  37   0.0000       0.177022         4.8170 
  38   0.0000       0.177022         4.8170 
  39   0.0000       0.181731         4.9452 
  40   0.0000       0.211481         5.7547 
  41   0.0000       0.211481         5.7547 
  42   0.0000       0.220104         5.9893 
  43   0.0000       0.261063         7.1039 
  44   0.0000       0.261395         7.1129 
  45   0.0000       0.316937         8.6243 
  46   0.0000       0.351300         9.5594 
  47   0.0000       0.351300         9.5594 
  48   0.0000       0.378978        10.3125 
  49   0.0000       0.531699        14.4683 
  50   0.0000       0.531699        14.4683 
  51   0.0000       0.625781        17.0284 
  52   0.0000       0.681573        18.5465 
  53   0.0000       0.681573        18.5465 
  54   0.0000       0.684220        18.6186 
  55   0.0000       0.685978        18.6664 
  56   0.0000       0.703137        19.1333 
  57   0.0000       0.737758        20.0754 
  58   0.0000       0.741713        20.1830 
  59   0.0000       0.742789        20.2123 
  60   0.0000       0.849810        23.1245 
  61   0.0000       0.849810        23.1245 
  62   0.0000       0.850718        23.1492 
  63   0.0000       0.917702        24.9719 
  64   0.0000       0.917702        24.9719 
  65   0.0000       0.982215        26.7274 
  66   0.0000       0.982215        26.7274 
  67   0.0000       0.988039        26.8859 
  68   0.0000       0.988734        26.9048 
  69   0.0000       1.003629        27.3101 
  70   0.0000       1.188280        32.3347 
  71   0.0000       1.188280        32.3347 
  72   0.0000       1.202473        32.7210 
  73   0.0000       1.582051        43.0498 
  74   0.0000       1.596521        43.4435 
  75   0.0000       1.596521        43.4435 
  76   0.0000       1.692444        46.0537 
  77   0.0000       1.692489        46.0550 
  78   0.0000       1.895270        51.5729 
  79   0.0000       1.895270        51.5729 
  80   0.0000       2.016845        54.8811 
  81   0.0000       2.187134        59.5149 
  82   0.0000       2.193080        59.6767 
  83   0.0000       2.306621        62.7664 
  84   0.0000       2.306621        62.7664 
  85   0.0000       2.313264        62.9471 
  86   0.0000       2.408155        65.5292 
  87   0.0000       2.408155        65.5292 
  88   0.0000       2.686367        73.0998 
  89   0.0000       2.686910        73.1146 
  90   0.0000       2.696109        73.3649 
  91   0.0000       2.735161        74.4275 
  92   0.0000       2.735161        74.4275 
  93   0.0000       2.762891        75.1821 
  94   0.0000       2.765801        75.2613 
  95   0.0000       2.765825        75.2619 
  96   0.0000       2.765825        75.2619 
  97   0.0000       2.846500        77.4572 
  98   0.0000       2.846500        77.4572 
  99   0.0000       2.930815        79.7515 
 100   0.0000       3.065096        83.4055 
 101   0.0000       4.142795       112.7312 
 102   0.0000       4.211125       114.5905 
 103   0.0000       4.211125       114.5905 
 104   0.0000       4.737599       128.9166 
 105   0.0000       4.844213       131.8177 
 106   0.0000       4.844213       131.8177 
 107   0.0000       4.889492       133.0499 
 108   0.0000       4.891266       133.0981 
 109   0.0000       5.050702       137.4366 
 110   0.0000       5.050702       137.4366 
 111   0.0000       5.352192       145.6406 
 112   0.0000       5.755926       156.6267 
 113   0.0000       7.269726       197.8193 
 114   0.0000       7.270335       197.8359 
 115   0.0000       7.274066       197.9374 
 116   0.0000       7.274066       197.9374 
 117   0.0000       7.277611       198.0339 
 118   0.0000       7.283783       198.2018 
 119   0.0000       7.303274       198.7322 
 120   0.0000       7.303274       198.7322 
 121   0.0000       7.365053       200.4133 
 122   0.0000      10.033453       273.0241 
 123   0.0000      10.033704       273.0310 
 124   0.0000      10.098734       274.8005 
 125   0.0000      10.098734       274.8005 
 126   0.0000      10.265522       279.3391 
 127   0.0000      15.690402       426.9575 
 128   0.0000      15.690402       426.9575 
 129   0.0000      15.712656       427.5631 
 130   0.0000      15.713266       427.5797 
 131   0.0000      15.796102       429.8338 
 132   0.0000      15.796102       429.8338 
 133   0.0000      15.896262       432.5593 
 134   0.0000      19.518338       531.1210 
 135   0.0000      19.520135       531.1699 
 136   0.0000      19.521971       531.2199 
 137   0.0000      19.521971       531.2199 
 138   0.0000      19.525447       531.3144 
 139   0.0000      19.525982       531.3290 
 140   0.0000      19.538640       531.6734 
 141   0.0000      19.538640       531.6734 
 142   0.0000      19.558620       532.2171 

                    ********************************
                    * MULLIKEN POPULATION ANALYSIS *
                    ********************************

--------------------------------------------
MULLIKEN ATOMIC CHARGES AND SPIN POPULATIONS
--------------------------------------------
   0 Zn:    0.499329    0.863718
   1 Cl:   -0.499329    0.136282
Sum of atomic charges         :    0.0000000
Sum of atomic spin populations:    1.0000000

-----------------------------------------------------
MULLIKEN REDUCED ORBITAL CHARGES AND SPIN POPULATIONS
-----------------------------------------------------
CHARGE
  0 Zns       :     7.153223  s :     7.153223
      pz      :     4.254111  p :    12.356677
      px      :     4.051283
      py      :     4.051283
      dz2     :     1.986379  d :     9.986304
      dxz     :     2.000260
      dyz     :     2.000260
      dx2y2   :     1.999705
      dxy     :     1.999700
      f0      :     0.001757  f :     0.004452
      f+1     :     0.001341
      f-1     :     0.001341
      f+2     :     0.000007
      f-2     :     0.000007
      f+3     :     0.000000
      f-3     :     0.000000
      g0      :     0.000005  g :     0.000014
      g+1     :     0.000004
      g-1     :     0.000004
      g+2     :     0.000000
      g-2     :     0.000000
      g+3     :     0.000000
      g-3     :     0.000000
      g+4     :     0.000000
      g-4     :     0.000000
  1 Cls       :     6.000457  s :     6.000457
      pz      :     3.590121  p :    11.468355
      px      :     3.939117
      py      :     3.939117
      dz2     :     0.013711  d :     0.027980
      dxz     :     0.006962
      dyz     :     0.006962
      dx2y2   :     0.000172
      dxy     :     0.000173
      f0      :     0.000236  f :     0.002538
      f+1     :     0.001033
      f-1     :     0.001033
      f+2     :     0.000116
      f-2     :     0.000121
      f+3     :     0.000000
      f-3     :     0.000000

SPIN
  0 Zns       :     0.662089  s :     0.662089
      pz      :     0.182023  p :     0.195280
      px      :     0.006629
      py      :     0.006629
      dz2     :     0.007671  d :     0.006342
      dxz     :    -0.000755
      dyz     :    -0.000755
      dx2y2   :     0.000090
      dxy     :     0.000090
      f0      :     0.000100  f :     0.000006
      f+1     :    -0.000047
      f-1     :    -0.000047
      f+2     :     0.000000
      f-2     :    -0.000001
      f+3     :     0.000000
      f-3     :     0.000000
      g0      :     0.000000  g :     0.000000
      g+1     :    -0.000000
      g-1     :    -0.000000
      g+2     :    -0.000000
      g-2     :    -0.000000
      g+3     :    -0.000000
      g-3     :    -0.000000
      g+4     :     0.000000
      g-4     :    -0.000000
  1 Cls       :    -0.002471  s :    -0.002471
      pz      :     0.149256  p :     0.138264
      px      :    -0.005496
      py      :    -0.005496
      dz2     :     0.001430  d :     0.000885
      dxz     :    -0.000223
      dyz     :    -0.000223
      dx2y2   :    -0.000050
      dxy     :    -0.000049
      f0      :    -0.000099  f :    -0.000396
      f+1     :    -0.000108
      f-1     :    -0.000108
      f+2     :    -0.000041
      f-2     :    -0.000040
      f+3     :    -0.000000
      f-3     :    -0.000000


                     *******************************
                     * LOEWDIN POPULATION ANALYSIS *
                     *******************************

-------------------------------------------
LOEWDIN ATOMIC CHARGES AND SPIN POPULATIONS
-------------------------------------------
   0 Zn:    0.220504    0.792300
   1 Cl:   -0.220504    0.207700

----------------------------------------------------
LOEWDIN REDUCED ORBITAL CHARGES AND SPIN POPULATIONS
----------------------------------------------------
CHARGE
  0 Zns       :     6.882746  s :     6.882746
      pz      :     4.471954  p :    12.645605
      px      :     4.086826
      py      :     4.086826
      dz2     :     2.113094  d :    10.228884
      dxz     :     2.059189
      dyz     :     2.059189
      dx2y2   :     1.998706
      dxy     :     1.998706
      f0      :     0.012053  f :     0.022181
      f+1     :     0.005056
      f-1     :     0.005056
      f+2     :     0.000008
      f-2     :     0.000007
      f+3     :     0.000000
      f-3     :     0.000000
      g0      :     0.000046  g :     0.000080
      g+1     :     0.000016
      g-1     :     0.000016
      g+2     :     0.000000
      g-2     :     0.000000
      g+3     :     0.000000
      g-3     :     0.000000
      g+4     :     0.000000
      g-4     :     0.000000
  1 Cls       :     5.732776  s :     5.732776
      pz      :     3.656216  p :    11.308713
      px      :     3.826249
      py      :     3.826249
      dz2     :     0.101442  d :     0.127474
      dxz     :     0.012417
      dyz     :     0.012417
      dx2y2   :     0.000599
      dxy     :     0.000600
      f0      :     0.029672  f :     0.051540
      f+1     :     0.010247
      f-1     :     0.010247
      f+2     :     0.000687
      f-2     :     0.000687
      f+3     :     0.000000
      f-3     :     0.000000

SPIN
  0 Zns       :     0.496397  s :     0.496397
      pz      :     0.271703  p :     0.284648
      px      :     0.006473
      py      :     0.006473
      dz2     :     0.013718  d :     0.009292
      dxz     :    -0.002217
      dyz     :    -0.002217
      dx2y2   :     0.000003
      dxy     :     0.000004
      f0      :     0.001950  f :     0.001956
      f+1     :    -0.000001
      f-1     :    -0.000001
      f+2     :     0.000004
      f-2     :     0.000003
      f+3     :     0.000000
      f-3     :     0.000000
      g0      :     0.000008  g :     0.000008
      g+1     :    -0.000000
      g-1     :    -0.000000
      g+2     :    -0.000000
      g-2     :    -0.000000
      g+3     :    -0.000000
      g-3     :    -0.000000
      g+4     :     0.000000
      g-4     :    -0.000000
  1 Cls       :     0.034961  s :     0.034961
      pz      :     0.155760  p :     0.147903
      px      :    -0.003928
      py      :    -0.003928
      dz2     :     0.024501  d :     0.024097
      dxz     :    -0.000195
      dyz     :    -0.000195
      dx2y2   :    -0.000007
      dxy     :    -0.000007
      f0      :     0.001002  f :     0.000739
      f+1     :    -0.000132
      f-1     :    -0.000132
      f+2     :    -0.000000
      f-2     :     0.000000
      f+3     :    -0.000000
      f-3     :    -0.000000


                      *****************************
                      * MAYER POPULATION ANALYSIS *
                      *****************************

  NA   - Mulliken gross atomic population
  ZA   - Total nuclear charge
  QA   - Mulliken gross atomic charge
  VA   - Mayer's total valence
  BVA  - Mayer's bonded valence
  FA   - Mayer's free valence

  ATOM       NA         ZA         QA         VA         BVA        FA
  0 Zn    29.5007    30.0000     0.4993     1.5954     0.8283     0.7671
  1 Cl    17.4993    17.0000    -0.4993     0.8493     0.8283     0.0210

  Mayer bond orders larger than 0.100000
B(  0-Zn,  1-Cl) :   0.8283 

-------
TIMINGS
-------

Total SCF time: 0 days 0 hours 0 min 0 sec 

Total time                  ....       0.724 sec
Sum of individual times     ....       0.582 sec  ( 80.5%)

Fock matrix formation       ....       0.414 sec  ( 57.3%)
  Split-RI-J                ....       0.269 sec  ( 64.9% of F)
  XC integration            ....       0.063 sec  ( 15.2% of F)
    Basis function eval.    ....       0.009 sec  ( 13.6% of XC)
    Density eval.           ....       0.010 sec  ( 15.8% of XC)
    XC-Functional eval.     ....       0.002 sec  (  3.7% of XC)
    XC-Potential eval.      ....       0.028 sec  ( 44.1% of XC)
Diagonalization             ....       0.011 sec  (  1.5%)
Density matrix formation    ....       0.002 sec  (  0.3%)
Population analysis         ....       0.007 sec  (  1.0%)
Initial guess               ....       0.014 sec  (  1.9%)
Orbital Transformation      ....       0.000 sec  (  0.0%)
Orbital Orthonormalization  ....       0.008 sec  (  1.2%)
DIIS solution               ....       0.001 sec  (  0.2%)
Grid generation             ....       0.132 sec  ( 18.3%)


-------------------------------------------------------------------------------
                          DFT DISPERSION CORRECTION                            
                                                                               
                              DFTD3 V3.1  Rev 1                                
                          USING Becke-Johnson damping                          
-------------------------------------------------------------------------------
The TPSS functional is recognized
Active option DFTDOPT                   ...         4   

molecular C6(AA) [au] = 583.909004 


            DFT-D V3
 parameters
 s6 scaling factor         :     1.0000 
 a1 scaling factor         :     0.4535 
 s8 scaling factor         :     1.9435 
 a2 scaling factor         :     4.4752 
 ad hoc parameters k1-k3   :    16.0000     1.3333    -4.0000 

 Edisp/kcal,au: -0.960496829055  -0.001530648964 
 E6   /kcal   :  -0.342894849 
 E8   /kcal   :  -0.617601981 
 % E8         :  64.300262309 

-------------------------   ----------------
Dispersion correction           -0.001530649
-------------------------   ----------------


-------------------------   --------------------
FINAL SINGLE POINT ENERGY     -2239.713322726402
-------------------------   --------------------

                                *** OPTIMIZATION RUN DONE ***

                            ***************************************
                            *     ORCA property calculations      *
                            ***************************************

                                    ---------------------
                                    Active property flags
                                    ---------------------
   (+) Dipole Moment


------------------------------------------------------------------------------
                       ORCA ELECTRIC PROPERTIES CALCULATION
------------------------------------------------------------------------------

Dipole Moment Calculation                       ... on
Quadrupole Moment Calculation                   ... off
Polarizability Calculation                      ... off
GBWName                                         ... 57_ZnCl.gbw
Electron density file                           ... 57_ZnCl.scfp
The origin for moment calculation is the CENTER OF MASS  = ( 0.000000,  0.000000  1.282266)

-------------
DIPOLE MOMENT
-------------
                                X             Y             Z
Electronic contribution:      0.00000       0.00000      -2.98726
Nuclear contribution   :      0.00000       0.00000       1.94334
                        -----------------------------------------
Total Dipole Moment    :      0.00000       0.00000      -1.04393
                        -----------------------------------------
Magnitude (a.u.)       :      1.04393
Magnitude (Debye)      :      2.65345



--------------------
Rotational spectrum 
--------------------
 
Rotational constants in cm-1:     0.000000     0.156288     0.156288 
Rotational constants in MHz :     0.000000  4685.390286  4685.390286 

 Dipole components along the rotational axes: 
x,y,z [a.u.] :    -1.043927     0.000000     0.000000 
x,y,z [Debye]:    -2.653451     0.000000     0.000000 

 

Timings for individual modules:

Sum of individual times         ...       67.496 sec (=   1.125 min)
GTO integral calculation        ...       21.083 sec (=   0.351 min)  31.2 %
SCF iterations                  ...       16.777 sec (=   0.280 min)  24.9 %
SCF Gradient evaluation         ...       29.437 sec (=   0.491 min)  43.6 %
Geometry relaxation             ...        0.199 sec (=   0.003 min)   0.3 %
                             ****ORCA TERMINATED NORMALLY****
TOTAL RUN TIME: 0 days 0 hours 1 minutes 8 seconds 449 msec
